% Model:              jellyFish_twobar_fine_fsi_Inflow_demo_uf_freqinf.mph
% Version:            COMSOL 6.0.0.318
% Date:               Jun 27 2023, 15:12
% Table:              Table 16 - Point Evaluation 5
% Time (s)               Total traction, exterior boundaries, y component (N/m^2), Point: 1Total traction, exterior boundaries, y component (N/m^2), Point: 2Total traction, exterior boundaries, y component (N/m^2), Point: 3Total traction, exterior boundaries, y component (N/m^2), Point: 4Total traction, exterior boundaries, y component (N/m^2), Point: 5Total traction, exterior boundaries, y component (N/m^2), Point: 6Total traction, exterior boundaries, y component (N/m^2), Point: 7Total traction, exterior boundaries, y component (N/m^2), Point: 8Total traction, exterior boundaries, y component (N/m^2), Point: 9Total traction, exterior boundaries, y component (N/m^2), Point: 10Total traction, exterior boundaries, y component (N/m^2), Point: 11Total traction, exterior boundaries, y component (N/m^2), Point: 12Total traction, exterior boundaries, y component (N/m^2), Point: 13Total traction, exterior boundaries, y component (N/m^2), Point: 14Total traction, exterior boundaries, y component (N/m^2), Point: 15Total traction, exterior boundaries, y component (N/m^2), Point: 16Total traction, exterior boundaries, y component (N/m^2), Point: 17Total traction, exterior boundaries, y component (N/m^2), Point: 18Total traction, exterior boundaries, y component (N/m^2), Point: 19Total traction, exterior boundaries, y component (N/m^2), Point: 20Total traction, exterior boundaries, y component (N/m^2), Point: 21Total traction, exterior boundaries, y component (N/m^2), Point: 22Total traction, exterior boundaries, y component (N/m^2), Point: 23Total traction, exterior boundaries, y component (N/m^2), Point: 24Total traction, exterior boundaries, y component (N/m^2), Point: 25Total traction, exterior boundaries, y component (N/m^2), Point: 26Total traction, exterior boundaries, y component (N/m^2), Point: 27Total traction, exterior boundaries, y component (N/m^2), Point: 28Total traction, exterior boundaries, y component (N/m^2), Point: 29Total traction, exterior boundaries, y component (N/m^2), Point: 30Total traction, exterior boundaries, y component (N/m^2), Point: 31Total traction, exterior boundaries, y component (N/m^2), Point: 32Total traction, exterior boundaries, y component (N/m^2), Point: 33Total traction, exterior boundaries, y component (N/m^2), Point: 34Total traction, exterior boundaries, y component (N/m^2), Point: 35Total traction, exterior boundaries, y component (N/m^2), Point: 36Total traction, exterior boundaries, y component (N/m^2), Point: 37Total traction, exterior boundaries, y component (N/m^2), Point: 38Total traction, exterior boundaries, y component (N/m^2), Point: 39Total traction, exterior boundaries, y component (N/m^2), Point: 40Total traction, exterior boundaries, y component (N/m^2), Point: 41Total traction, exterior boundaries, y component (N/m^2), Point: 42
0                        -1.7734671042301724      1.768465858423362        6.626363041561945E-5     -7.626284982009679E-5    4.662040156119596        -4.221553052561703       8.246608681284442        -8.54472210852915        0.013988222792245243     0.07616553487471747      1.272063903047333        -1.3718148865574684      0.21037423747787476      -0.18865470272847074     0.39904739628720676      -0.4244596546786329      0.44409777125238054      -0.432989401022129       0.0523796421957268       -0.06758054773577887     0.5303048961501506       -0.5226538825222571      -0.1871428287564189      0.1717503252497355       0.5748869659459407       -0.5690671817334778      -0.3401555793186784      0.32921975355167005      0.6055373082920319       -0.5996046916048714      -0.4379833621145225      0.42817306601384314      0.6200350055699124       -0.6144077377830827      -0.5007028092181536      0.4922864566313989       1.2896961501942963       -1.2789292443782314      0.6493056631813393       -0.6435927255678036      -7.349925613707285E-5    1.9197477182940494E-4
0.01                     -0.6555982330736617      0.6566369479208249       3.1413515276312864E-4    7.340742733141781E-5     9.573179927111777        -9.576197451272801       10.381268058979394       -10.38735120077191       1.1364335561102532       -1.1292689312704913      1.961571250848329        -1.9626738267942883      -2.905862628094755       2.9095847224740634       -1.678069833755161       1.6748542873524817       0.1342783175565657       -0.13111200284854072     1.0108276582407059       -1.0098068642928983      0.1212202336389248       -0.12096044607160006     0.7002400724741102       -0.7009349816391268      -0.2680828723496148      0.267741098356021        0.22699246061667788      -0.2292037399608921      -0.11761352689026366     0.1171813826225582       0.29391095640930054      -0.29538411497227257     0.07046565585448125      -0.06669681893114288     0.3926065528232399       -0.38832767813433716     -0.04735729639129496     0.05030586236226385      -0.1918174463424605      0.19467932453267237      -6.377150072041044E-5    4.446047509328968E-5
0.02                     -0.3038314842223153      0.30424437984317587      2.892280857856866E-4     1.0461228394098576E-4    3.7279869738799656       -3.7313733053347273      3.924595266813318        -3.9223830634411456      4.120581604711349        -4.121997869670972       3.9028739959536094       -3.900951867869987       -1.9134310884721084      1.9129405756578197       -1.632307104189126       1.6353970825831206       -2.4413215012352354      2.4396484806738803       -1.9102926209596962      1.9116055064834256       0.5077229001879374       -0.5083307030902823      0.8690032985406311       -0.8688473448920428      0.5410155525302226       -0.5425376639111987      0.6847635124304505       -0.6842379889269792      -0.09426014018659934     0.0950852393204735       0.0353146911505691       -0.03270779599261061     -0.02294776499345075     0.0228908875341814       0.07947712153632194      -0.0782049684342033      0.008648887976993197     -0.014820839726946172    -0.06171990125908315     0.06441225129001822      -7.437396394481892E-5    9.485696679179248E-5
0.03                     -0.049989562394011054    0.050215394974676475     1.7952621640673905E-4    -3.649495413426962E-6    0.817832212572216        -0.8226042990742891      0.7751112933642201       -0.7730424879168528      2.5531618232310165       -2.55664742581           2.054055080592614        -2.0503523650711672      0.10671313367843867      -0.10749060454954137     -0.10004181395310666     0.10256769914687106      -3.2727209672206428      3.270214226865858        -3.188694661194633       3.1906289779642947       -0.9884443022164834      0.9862293290472474       -0.7119412642298597      0.7117012806020121       1.30666806729081         -1.3086158701196653      1.387541097421375        -1.3869395954601094      0.5806396956557118       -0.5807750221370084      0.5505169860096213       -0.5475351525093978      -0.21863156740916398     0.218522549565608        -0.20156122147793049     0.20246846547320552      -0.06691061918885559     0.06311290348399716      0.004702599474303323     -0.003595245137548378    -5.504805631104851E-5    7.228687109483692E-5
0.04                     0.0684609943061818       -0.06843237382807446     8.504580841772746E-5     -1.0948027140211813E-4   -0.3849444540025869      0.3827745553032552       -0.5449541987972576      0.5455940534343469       0.9235079582272883       -0.9246065452643448      0.41457203685754157      -0.41115569671642743     0.3456906980619824       -0.34578066918220407     -0.17588993688979299     0.17727958370961625      -2.739646979015467       2.7394571478937726       -2.934762709237842       2.933912472402794        -2.1558248169243783      2.154596840362969        -2.1660351249072516      2.164990315778283        0.8946134785877493       -0.8953338483159979      1.0140622678441842       -1.0137509970603418      1.6902081533805013       -1.6869498915684913      1.627705946478427        -1.6253957707935633      0.6548716202347338       -0.6495528249823335      0.5957124150973763       -0.5955495911474159      0.23306322802790824      -0.23879298841037955     -0.05954992042793387     0.05432003784000139      -3.252596958321755E-5    4.535983157381385E-5
0.05                     0.09471603548235934      -0.09483714120945355     4.9926207484229934E-5    -1.47470729299215E-4     -0.683368654007629       0.6827015339748166       -0.9436449132040112      0.944540966454778        -0.04550901100503832     0.045246762625754985     -0.5391082240885113      0.5423902081563898       -0.2033281935250162      0.20275585102967503      -0.8748621161498762      0.8743996066167959       -2.3727718771941078      2.3718739572175735       -2.73003927815229        2.7288858221247483       -2.6831333839723355      2.678925925604977        -3.0176505259826634      3.0159176322385712       0.17635851168982397      -0.17578959474304995     0.2104129522994677       -0.20972797622185563     2.418254683099721        -2.414498768689636       2.4164760812780695       -2.4138433933268377      2.131341045303429        -2.130605338547484       1.9960806955027253       -1.9939187957157625      0.7817207858504427       -0.7801985283266096      -0.22449788839801998     0.22432276657716427      -1.9815875086313E-5      2.8528452628417428E-5
0.06                     0.13126857419169827      -0.1314015200235189      9.542687465041721E-5     -9.429848177466837E-5    -0.4644009000051408      0.4645916968069057       -0.7715426281193181      0.7729713311639377       -0.505506824915069       0.5049997511821647       -0.9799290016762594      0.9826682545628302       -0.8468346258611106      0.8452249771002288       -1.5480869495961078      1.5474054394168881       -2.548368982898708       2.5449286788391445       -2.9971451520869357      2.9949978213139015       -3.0850061449894337      3.0757032018216903       -3.638854603497565       3.638428276719502        -0.21089677675296992     0.21800351412468144      -0.3744239338667006      0.3755869958338678       2.637328340139495        -2.635876201824889       2.6958268111283514       -2.69746440006247        2.7916891712078056       -2.7972129211739385      2.6483703241558114       -2.6565619432552823      1.111226912061116        -1.1199945111329253      -0.3029596901899071      0.31290897374815907      -1.3219855464414708E-5   1.9630439849065312E-5
0.07                     0.19025082359245027      -0.19037617048474384     2.7895012955980736E-4    1.1400360654056918E-4    0.12700998802510738      -0.12297075298386552     -0.18552061285998547     0.1877153479604579       -0.5999350723756942      0.6005836853401163       -1.06406856260344        1.066899510911048        -1.3131178674832467      1.3125994540483426       -2.0088262001496062      2.0091069079583015       -3.0385716156488485      3.036891388265948        -3.542272457540907       3.5409699307733025       -3.392373177555127       3.382360107895254        -4.112708889633686       4.115843995106134        -0.2765225811834263      0.28567870031131026      -0.754857721389987       0.7540881639208026       2.346044162986105        -2.351542584694082       2.396980543413119        -2.407904143203366       2.338574572407989        -2.3533158167503045      2.214744770748053        -2.233485765474221       1.002875284747582        -1.01588694817914        -0.26400262385210627     0.2764311829802949       -1.6513071475361212E-5   2.2222416284295594E-5
0.08                     0.21125592674695262      -0.21127195232039664     7.956591907947175E-4     6.802271393322457E-4     1.1437383869690927       -1.1402019390321039      0.7138315752639349       -0.7112000942158166      -0.4352956515841645      0.43483019247648824      -0.9109423285873806      0.9118209406874014       -1.4802635988138295      1.47814059747996         -2.132332351087388       2.1304218496819614       -3.191239337779656       3.1922502092942167       -3.5620699380758145      3.562032723103366        -3.209220122955661       3.205032084338157        -4.006610127659752       4.015121466386734        -0.5612293927696592      0.5651395396685328       -1.3893616900652215      1.382859129982379        1.2087679424431574       -1.2218683797281331      1.2748335301616074       -1.291629652370067       1.1678052407763722       -1.1861846417413315      1.1091401101786589       -1.13075824868009        0.5941280955562381       -0.6147867756389449      -0.14106432956355353     0.1542317949146374       -3.111059876328613E-5    3.6895467725442725E-5
0.09                     0.16597976668644135      -0.16574016391651286     0.001935345100925634     0.0019509627530331919    2.1343646386414106       -2.131599689252945       1.5548051216761634       -1.5525021406637585      -0.04766269152651376     0.04666958955164766      -0.5132265706015887      0.5137553486541931       -1.234712673091678       1.2333069073073473       -1.6870522656958253      1.6867549161809618       -2.155019537336082       2.1608362583544176       -2.107028558921729       2.1135264933861793       -2.0603257690105523      2.057563568380436        -2.5727122773637987      2.582464619717671        -1.937911630889788       1.9265214043244532       -2.717009595174525       2.7049411475518337       -1.3995258854607593      1.3801812524853683       -1.1321715302350908      1.11294046561509         -0.545663839604726       0.5303022477768271       -0.4091645519429863      0.39309950224553925      -0.09153243147792411     0.0735862237331438       0.02338085085180459      -0.010048009482735425    -2.5229941652470664E-5   4.328793855957945E-5
0.1                      0.07172612902030687      -0.07131960876991847     0.0031883788770543653    0.0033378670407531175    2.245214610736426        -2.2443947768238326      1.6484093691014277       -1.6482350740662115      0.3812706639123306       -0.3840555937424013      0.06931091204624493      -0.06963214154500946     -0.22516839764693994     0.22586408294103155      -0.2968734059476342      0.3000201355753427       0.30421833452816516      -0.2924919451179125      1.1260946282874813       -1.1125335288038176      -0.2994232605647711      0.2897816708233914       0.2855226693170676       -0.28345392719312945     -4.875989973293651       4.850832576705365        -4.680325784513521       4.6563008273387645       -5.586779164831587       5.572684403001391        -4.762663759634556       4.75390231773111         -2.7538894792109474      2.7457696040328767       -2.2618709822377356      2.2542729130806975       -1.354284350161337       1.3182701220021045       0.32092502593784966      -0.28490838292989984     -1.3376649649641955E-5   3.408905812835754E-5
0.11                     -0.08626602679942975     0.08683541289568644      0.0030797538807498803    0.003097648508199935     1.1799293698983462       -1.1787234664135757      0.8034353007712149       -0.8030138795003832      0.27589947385335173      -0.27850829713253866     0.27411263687968146      -0.2754659453505098      1.8022195873992033       -1.7981261686495333      2.233810864672772        -2.2265054841515095      3.506601971916395        -3.491471058750125       5.430307920308344        -5.41488585100187        0.5224088170522898       -0.5467520264671584      2.8163189329207885       -2.8287116440164963      -8.626057708040921       8.596136324149604        -6.676658940277379       6.647550840631176        -9.997117019068028       9.993385398325778        -8.416770831594661       8.420493829012779        -4.963707003099807       4.9586002665554          -4.069386470271029       4.06837536761431         -2.9247015504426255      2.8804480215399817       0.751423197757262        -0.7279235374768485      -8.471882796680857E-6    2.314897365153097E-5
0.12                     -0.29119793083460666     0.2916234546351368       0.001566675882794355     0.001362583560051478     -0.02261150664338188     0.02641619231725667      -0.1598633564288186      0.1623085466852654       -0.8382527768777954      0.8384731864974228       -0.5785808497559916      0.5767208939682027       3.94614052130039         -3.9408279795191867      4.72964615490614         -4.7211480841073445      5.897407252628296        -5.886254877347347       8.345523818795364        -8.33763468713989        -0.830463444054631       0.8106433613267596       2.457225181404125        -2.4793710423941278      -11.067027563383379      11.051645747709983       -8.122159304416279       8.104008162291901        -11.838273621949092      11.849036222688934       -9.828011058690029       9.842217568398413        -6.031112988965592       6.035833843594312        -5.032548667921994       5.038358610690951        -3.438161033093703       3.47017456168804         0.9954530584493515       -1.0355680735365806      -1.4929244653464688E-5   2.5664934190424992E-5
0.13                     -0.3969259065779553      0.39784456060182793      5.261722576671568E-4     1.937408973757826E-4     -0.5678259183809792      0.5722648960013311       -0.6725515145567177      0.6745353949091704       -2.1829612010599098      2.1868464183017835       -1.8193959617257032      1.8187439637746277       4.4272705139549995       -4.424866719483287       4.991300019981221        -4.987078159794967       5.516406447414683        -5.519366574905544       7.23430371633588         -7.243968440362563       -3.2930797077130167      3.2850540886906625       -0.7194346989079474      0.6924072986191843       -10.699383645021511      10.700684209583333       -8.07263296489347        8.071772719526283        -9.742960790028047       9.758021167982257        -7.798816889316807       7.814988155169845        -4.966227835785588       4.97454698325636         -4.162897790838118       4.173334167666221        -2.3690584295990407      2.4170908144620613       0.9507300920364565       -0.9906481215949812      -3.5214223197337564E-5   4.1710105190120515E-5
0.14                     -0.3662230963874153      0.3670037063656264       4.184856905762313E-4     -5.3442036570205964E-5   -0.7961035774992203      0.7980047106183983       -0.8441203056930452      0.8440532895311846       -2.797147542789231       2.803240582345445        -2.247108956366434       2.247591636700494        3.092951810959081        -3.0933596761950204      2.9990844394386666       -2.9987307824547527      2.7935439381693064       -2.8012018217939483      2.5523493190029605       -2.5712017505502125      -5.2474815918252915      5.254708360642434        -4.479127407563295       4.464010775935411        -8.481557248564279       8.4906410670689          -6.7146770047675535      6.726525078838874        -5.621665621917252       5.636800292160261        -4.144644165623934       4.15753654256698         -2.291413411430905       2.302130207144179        -1.939912887952111       1.9565642057703756       -0.88345306225527        0.9471673629787603       0.6511310308909234       -0.6758509807051907      -5.2784214715669474E-5   5.815767449532053E-5
0.15                     -0.27122027448515174     0.271499863863548        7.342949841837587E-4     2.0829501003016837E-4    -0.927326730141129       0.929803456581535        -0.8921168704195149      0.8931571880678013       -2.871144548984911       2.8785191809580954       -1.9360334380869124      1.9379473624052985       1.5838997957004197       -1.5859040704928868      0.9731925560033678       -0.9768450846858221      0.24372790664836558      -0.24851889546126366     -2.0162492795303213      1.9964778938709538       -6.552023671210287       6.574074325584316        -7.342067095500781       7.337292353055934        -6.73745643583204        6.756748898974674        -5.604398014548798       5.6276157586070585       -2.2662780058862078      2.289869761423515        -1.3251351278067158      1.3421308545294532       0.1031192510248641       -0.08716349965840514     0.022234683922472954     -0.0021379885315576533   0.06614343074353213      -0.037209711119870516    0.40525960205140776      -0.4205367402107184      -5.414172060590015E-5    6.229684005702854E-5
0.16                     -0.21697497238756136     0.21733458799132352      0.0017653250878995053    0.0012211202883931627    -0.9911185842931279      0.9951839102063671       -0.9340142753824718      0.93431860608969         -2.970257220943725       2.972925620795505        -1.6420928216737254      1.6376186891634945       0.7367484284036657       -0.7372524924675812      0.20266742365799637      -0.20400011386753447     -0.03376178517612527     0.03286604813094349      -3.5594862630842066      3.548240414597285        -6.880334779976991       6.900993696552293        -8.419905158049438       8.42243231352004         -6.429763785809825       6.445751447538368        -5.4945393112215575      5.51553313492726         -1.0223289333288486      1.0403026736079402       -0.4898466050025664      0.5028590971171892       0.9669580487269996       -0.9605266109586305      0.6889659650679308       -0.6765811767592478      0.37054114837890173      -0.36067194907335576     0.3082450756161712       -0.3098595321715849      -4.9848478408202594E-5   5.691461934519948E-5
0.17                     -0.33764723139481245     0.3378608898218038       0.003659617407514748     0.0030845804554564538    -1.0568783830898865      1.0620998467964629       -0.9992917544122093      1.0016420767230063       -3.2556505047626256      3.25791661757497         -1.785999791295785       1.783280758876748        0.028617282442952363     -0.030746720047252818    0.10294192040715484      -0.10473587260421013     2.1473152849607446       -2.1544053451366585      -1.6767020266988206      1.6624119804039799       -4.369857718231287       4.392347747184662        -6.266065941839372       6.27234831044718         -6.4942874618624735      6.528121015910468        -5.539826427477974       5.567452499808242        -2.219902961691247       2.24376369385683         -1.9664283185477582      1.983762048335055        -0.09885498524577663     0.10215082672821668      -0.33148593073919796     0.3366111098072292       0.10549377325315128      -0.09016243059467502     0.31065810938805116      -0.3042180449233207      -6.42446007353452E-5     7.240881764602326E-5
0.18                     -0.7438172443388212      0.7441280060895332       0.005253656234292414     0.004498178056935309     -1.1269353773746988      1.1345055416328573       -1.0643067919972533      1.0687793765855809       -3.575106465403347       3.579750760314286        -2.316479397902048       2.318689630692181        -1.1300614111909149      1.1245808277219775       -0.37142813262544716     0.36917501126649177      4.868727184354844        -4.885943687855198       1.786932015238384        -1.8038657471952804      2.338249031661011        -2.3195547168139203      0.13197948786053004      -0.12186828461632082     -4.598612594571348       4.641270558420425        -3.5674387408362715      3.6019552332825215       -5.421757631199083       5.450102370752555        -5.109829291249597       5.135598204721033        -2.877292049332824       2.8806726109872525       -2.9471488689883163      2.9538320689990982       -0.4050104251885207      0.43703052275306087      0.4824438497790353       -0.4631238913959862      -1.0054729496795887E-4   1.0917510554635944E-4
0.19                     -1.3515521751912187      1.352787971676604        0.0050101740082366675    0.004101923612012337     -1.03105189952622        1.0423784524241164       -1.0590998359793766      1.0681414792360218       -3.640769045044132       3.6541815017441674       -2.9521419369075037      2.9634757206433235       -2.4338201183244648      2.4242384064018525       -1.4541084093898233      1.4487914903413663       5.731642153477905        -5.755759658639004       4.013125188799175        -4.032003952033547       10.326222401374757       -10.309526009208444      7.935835037108035        -7.922076816330277       1.0020585136287141       -0.9457298900030263      2.2361424077536034       -2.194737592789948       -7.361663870890798       7.414774472716465        -6.315226994337276       6.361490085188922        -5.3877838249492696      5.416079339656207        -5.376276845370768       5.407101777022882        -0.512122467054184       0.544018456268755        0.830907204760646        -0.8176366806969086      -2.2339190548363328E-4   1.7633564721847864E-4
0.2                      -2.0812634432660087      2.082797144912335        0.0030863709131818684    0.0025818519908822335    -0.7388761674775555      0.7531503100221869       -0.952868926944288       0.9679140238706362       -3.3791187325417127      3.4044061603884916       -3.433489189669341       3.4555172992473375       -3.358197147330597       3.3475573714839304       -2.697550405997151       2.6878296627170597       4.489360123599334        -4.517517917194992       4.049327296308006        -4.070950428114068       14.714639740163266       -14.706888428134018      12.298489022355955       -12.285111831906924      9.257327712606562        -9.220971021231836       9.916915786249021        -9.873785190821877       -2.656163635459791       2.7185657274977757       -0.4856502409343042      0.5500086144957872       -3.445489159878878       3.497164338932048        -3.4727857051691293      3.5372159107558594       0.17912398311933872      -0.14725126550829748     0.5893531041987443       -0.618668566004152       -2.832618420755424E-4    3.2184571910841726E-4
0.21                     -3.053856078112453       3.0559843527113593       0.0010261254362163852    0.001252239173594405     -0.39532105015952623     0.4090263656392739       -0.7961478851600485      0.8135890827677175       -2.922284523304605       2.953384272467435        -3.7134419039362037      3.7406597887533466       -3.82251290958871        3.814151360500945        -3.7193528900110744      3.707333873729871        2.631812967710653        -2.6593706598317755      2.8848209795865314       -2.9065874663398077      14.788889114531113       -14.781448944314306      12.944670517765385       -12.926627732131688      17.529197348794483       -17.491221613854012      17.460921715732447       -17.402222329716594      9.8147665549081          -9.751638950967322       12.998130905890473       -12.925362111311404      5.255394690935849        -5.208641432132813       5.51278624840289         -5.447782567898348       1.8716165715890711       -1.8699810478144963      -0.13739419083908944     0.07607658920810131      -5.086055243286472E-4    6.251098218788215E-4
0.22                     -4.1700862368166165      4.174886510484534        -3.645169593653186E-4    5.987218735944433E-4     -0.13305659981015933     0.14252360125789237      -0.7420311830122381      0.7545053939875876       -2.4337068412332967      2.4619525994204885       -3.7785126348520546      3.8060812032804723       -3.654460552669883       3.652283521959987        -4.182338194996263       4.174107231981742        0.9018335209174726       -0.9241412382101714      1.3976573603469344       -1.418118791867306       12.668408871514817       -12.654900741681747      12.215221995204114       -12.192167194698484      24.038057093741315       -23.98955758640564       24.788417172987806       -24.717603279856355      25.832648632969505       -25.777793471185653      30.29652923187993        -30.245814477090647      18.30805905328404        -18.292279850026244      20.07237444757527        -20.067316905536757      5.515270971336772        -5.444918908510738       -1.4063750350532622      1.3799144509281143       -0.0010309983973540275   0.001219787415048062
0.23                     -4.92697150043046        4.925019978213846        -3.2268232771673344E-4   8.432778294935606E-4     -0.12690807777356147     0.13175859365954595      -0.8497896718164463      0.8578745988381614       -1.7997636728520725      1.8175511739337529       -3.4979907814679443      3.5129583246765987       -2.755697694551979       2.7602272091736397       -3.8340292711222315      3.831898470530869        -0.3284992403632605      0.3170443685727123       0.02356503072352739      -0.03688212251897044     9.739363977149358        -9.724320717138998       10.841604142431274       -10.816554730595271      27.125240564472755       -27.073746579343172      29.899140090439214       -29.829645247174934      38.75783932664213        -38.721439275382394      44.506071372058315       -44.477916138892795      30.04025566826843        -30.05557747864791       33.6918169041563         -33.731682357741406      9.84623820690938         -9.86051808194548        -2.1531779478658377      2.227865230163645        -0.0016146997214445413   0.0018049285619978115
0.24                     -4.8157434931195295      4.81580842941244         -4.2521541564921606E-5   3.067652117656472E-4     -0.3129173822054959      0.3136650358310248       -0.9763580030928372      0.9771138420244683       -1.34207336742675        1.3441402770036222       -2.9171758439285735      2.9204140372737886       -1.643876379910978       1.6451794481964743       -2.9438074533780814      2.9399743201745725       -0.7624081243902168      0.762221072669316        -0.7642671707272694      0.7613949075082902       6.768610384132843        -6.752873373569887       8.624014410503761        -8.598207967780311       25.37222516017963        -25.330837294508406      29.524480523580962       -29.466867508281346      42.21967620725326        -42.177417838661036      48.10274171386337        -48.072273510457876      34.663304686490804       -34.64341343827395       37.938692730865206       -37.96356475545683       14.83935837594316        -14.802415029047403      -0.9663538354040282      1.1000748347460454       -0.0020247073761385315   0.002409800638801675