% Model:              jellyFish_twobar_fine_fsi_Inflow_demo_uf_freqinf.mph
% Version:            COMSOL 6.0.0.318
% Date:               Jun 24 2023, 21:02
% Table:              Table 13 - Point Evaluation 2
% Time (s)               Total traction, exterior boundaries, x component (N/m^2), Point: 1Total traction, exterior boundaries, x component (N/m^2), Point: 2Total traction, exterior boundaries, x component (N/m^2), Point: 3Total traction, exterior boundaries, x component (N/m^2), Point: 4Total traction, exterior boundaries, x component (N/m^2), Point: 5Total traction, exterior boundaries, x component (N/m^2), Point: 6Total traction, exterior boundaries, x component (N/m^2), Point: 7Total traction, exterior boundaries, x component (N/m^2), Point: 8Total traction, exterior boundaries, x component (N/m^2), Point: 9Total traction, exterior boundaries, x component (N/m^2), Point: 10Total traction, exterior boundaries, x component (N/m^2), Point: 11Total traction, exterior boundaries, x component (N/m^2), Point: 12Total traction, exterior boundaries, x component (N/m^2), Point: 13Total traction, exterior boundaries, x component (N/m^2), Point: 14Total traction, exterior boundaries, x component (N/m^2), Point: 15Total traction, exterior boundaries, x component (N/m^2), Point: 16Total traction, exterior boundaries, x component (N/m^2), Point: 17Total traction, exterior boundaries, x component (N/m^2), Point: 18Total traction, exterior boundaries, x component (N/m^2), Point: 19Total traction, exterior boundaries, x component (N/m^2), Point: 20Total traction, exterior boundaries, x component (N/m^2), Point: 21Total traction, exterior boundaries, x component (N/m^2), Point: 22Total traction, exterior boundaries, x component (N/m^2), Point: 23Total traction, exterior boundaries, x component (N/m^2), Point: 24Total traction, exterior boundaries, x component (N/m^2), Point: 25Total traction, exterior boundaries, x component (N/m^2), Point: 26Total traction, exterior boundaries, x component (N/m^2), Point: 27Total traction, exterior boundaries, x component (N/m^2), Point: 28Total traction, exterior boundaries, x component (N/m^2), Point: 29Total traction, exterior boundaries, x component (N/m^2), Point: 30Total traction, exterior boundaries, x component (N/m^2), Point: 31Total traction, exterior boundaries, x component (N/m^2), Point: 32Total traction, exterior boundaries, x component (N/m^2), Point: 33Total traction, exterior boundaries, x component (N/m^2), Point: 34Total traction, exterior boundaries, x component (N/m^2), Point: 35Total traction, exterior boundaries, x component (N/m^2), Point: 36Total traction, exterior boundaries, x component (N/m^2), Point: 37Total traction, exterior boundaries, x component (N/m^2), Point: 38Total traction, exterior boundaries, x component (N/m^2), Point: 39Total traction, exterior boundaries, x component (N/m^2), Point: 40Total traction, exterior boundaries, x component (N/m^2), Point: 41Total traction, exterior boundaries, x component (N/m^2), Point: 42
0                        -1.7734671022379715      -1.7684658562892757      84.88113050256851        136.4391297785121        14.8178257712807         13.417839010224395       26.213625740237298       27.161244403333775       0.04458212119746449      -0.242045737623133       4.044541069991965        4.361713740003848        0.6690444316328334       0.5999811207917153       1.2689337794866757       1.34974748652227         1.4121152223614641       1.376794415312173        0.16653309592632792      0.21486773070070941      1.6862163097316154       1.6618888718051454       -0.5950658067744572      -0.5461223560247586      1.8281566553988768       1.8096500746758526       -1.081706396064752       -1.0469304215751234      1.9254253107182857       1.9065614596562717       -1.3926552997270978      -1.3614617565544689      1.9715219495524625       1.9536290244184853       -1.592082623560076       -1.5653212207997664      0.9463961602087153       0.9384951200842857       -0.8848368585277213      -0.8770518216056767      7.349917518497121E-5     1.9197486112117616E-4
0.01                     -0.6555981857353227      -0.6566368972407084      28.220296659124248       36.45136436026479        35.06714039803258        35.080993675213016       37.80612385306033        37.82851800850496        3.5901507440283043       3.56754712839527         6.152844028528982        6.156332506901354        -8.962965785783226       -8.974615388275438       -5.192368936111476       -5.182165698053094       0.43497313521149367      0.4247544268560365       3.224115506215443        3.2210335657058797       0.39174505862225795      0.391069087169519        2.2339018458910376       2.235967096534596        -0.8465785807900519      -0.8453510619406543      0.7250325027881313       0.7321843016864784       -0.3704555382982935      -0.36911036367855565     0.9365135464863711       0.9412475128302555       0.2257243415148365       0.21371951097096037      1.247588074921259        1.2340528451920023       -0.034790893651273476    -0.03696746416451841     0.2613429166404016       0.26522677608160006      6.377927649407213E-5     4.446875353856655E-5
0.02                     -0.3038314244780155      -0.3042443161663302      6.5412486674007155       8.162253608365239        15.324171944282472       15.342204786055529       16.113514628266152       16.104748539299504       14.426021664886665       14.430895018895441       13.490159788909533       13.48347714633547        -5.6933907602749         -5.692048381301879       -4.852172812714059       -4.861298691840203       -7.411247902873473       -7.40617918250196        -5.8236054702644555      -5.827340003695782       1.63112863480105         1.6331567025559661       2.7914509992627208       2.7907726177772316       1.735715043876504        1.7406908292512808       2.1943664917751438       2.1926943593283212       -0.2943966134278938      -0.2970429396138347      0.11410826173776262      0.10590505425472921      -0.07061044705557526     -0.07046131881658935     0.25270077720226736      0.24867933682804105      0.006742641642938702     0.011343725611204456     0.08504091973902973      0.08864572328453442      7.438524795674139E-5     9.486938390956255E-5
0.03                     -0.04998950203626802     -0.05021533135092841     -1.4836624572880717      -2.2097885286308325      3.5818846699642197       3.6060956369806876       3.3731063748178265       3.364340957242643        10.214010662912235       10.227721631303883       8.074867138993719        8.060162532051422        0.3373750474769067       0.33955103962991096      -0.3036816206892774      -0.31153004360011044     -9.317244501478298       -9.309892143217423       -9.100753935296456       -9.105810144764273       -3.063493594576228       -3.056614124752352       -2.2163265079871874      -2.2157754333303536      4.266419462928051        4.272854606295594        4.5312269262903895       4.529251043987536        1.8515321178592719       1.8521165170497356       1.752581715779957        1.7432431266145736       -0.684596487435917       -0.6843435902296064      -0.6330573141209594      -0.6359831579441444      -0.04830058501233945     -0.045378352556125434    -0.0046048307378722805   -0.003170850938392808    5.50602420744214E-5      7.230051818029714E-5
0.04                     0.06846104861821035      0.06843243037220956      -4.063141163456177       -5.4435009368285066      -1.6779218252460661      -1.6663652507346935      -2.476471225532171       -2.4793507685157996      4.226629373706618        4.231578461198569        1.833558891568304        1.8180694098838885       1.1503844804719021       1.1503068784095756       -0.5715345313137066      -0.5764604674450591      -7.466741082138665       -7.465793450543867       -7.9806828110926595      -7.977766020815601       -6.253081012972457       -6.249461093192345       -6.3245517141646825      -6.321753090730251       2.9312059401530384       2.9335866718431918       3.3366800112121178       3.335895627872117        5.540134873082048        5.530329354750779        5.3209196623512165       5.314155078551181        2.050110155918418        2.0336522564424078       1.8593335227074403       1.8590187286002497       0.17157408153766437      0.17582446187969         0.08296631537509086      0.07572201195128984      3.253778151084287E-5     4.537326049535989E-5
0.05                     0.0947160817600622       0.09483718874610837      -3.4044064376281327      -4.661320620081458       -3.0457313768694547      -3.0418241664056653      -4.3446032364767415      -4.349036385826473       -0.1825755081499842      -0.1811046650001255      -2.762939277890257       -2.779635670536843       -0.7021718577514979      -0.7005097218567935      -3.0829824291352543      -3.0818872704354203      -6.343552508402549       -6.340515123013519       -7.244329463814376       -7.2404560183616296      -7.196919024625681       -7.185819481669037       -8.141509073199622       -8.137126343354165       0.559636858274959        0.5574010424875586       0.6798452804929409       0.6780650279669093       8.196403675060875        8.185732897531961        8.173370778324756        8.16641591526837         6.743109625470954        6.74111704080693         6.28986605352779         6.283437457681773        0.5732200387105353       0.5722778108476412       0.3075592136776952       0.30713017252319036      1.9826945483223245E-5    2.854119554065164E-5
0.06                     0.13126861097267736      0.13140155715697197      -0.8661509495308972      -1.288225432726033       -2.1067964901718357      -2.1069585677832334      -3.64044372156857        -3.647653773147184       -2.865887222819881       -2.8627855056807316      -5.672187444012815       -5.687952982329222       -3.323562603050418       -3.317097350551281       -6.005814117530093       -6.002979869236908       -6.802452922530197       -6.792120858975701       -7.902261917851838       -7.895217453340672       -7.681783738832779       -7.659129682733466       -9.090476878975743       -9.089745841052206       -0.6359613037306535      -0.658656630160326       -1.1255213369788688      -1.1286212711429955      9.094512656086096        9.09229126441856         9.310941666605238        9.319305452937263        9.159072018547203        9.176688191523386        8.64182217874328         8.66835744269344         0.8159097650304283       0.8227023503395436       0.414366200172278        0.42757051696840365      1.3230053605657657E-5    1.964231233860062E-5
0.07                     0.19025084792203653      0.1903761942206897       3.719649953946329        4.603621299791293        0.6362694888381708       0.6186491966309642       -0.9326647239433552      -0.9436299333363792      -3.920146412405253       -3.9242899589476163      -7.099750164061293       -7.118429551785296       -5.756313512133751       -5.752777933644225       -8.637108646062103       -8.636371552167706       -8.196047149800373       -8.189595351426195       -9.393372074147422       -9.387697916755746       -7.884225930836875       -7.8618871614760035      -9.555368904186846       -9.563469074052572       -0.7662632562607634      -0.7935635435174297      -2.085254606188993       -2.0824107402793333      8.053935995151114        8.07451845158798         8.29589969996199         8.335487856280281        8.18834672812384         8.238392415256191        7.7062136029929516       7.770799906099465        0.7408155099967038       0.7511730202123753       0.3625243277193066       0.3789919138809453       1.652210544477656E-5     2.223300581590817E-5
0.08                     0.21125593805781767      0.21127196213285956      10.979866508194256       13.473661404481408       6.113754583378713        6.100751206169246        3.9080003666204317       3.8953506030243235       -3.3682192022907333      -3.3640244949490867      -7.283940567757181       -7.290026684771859       -7.253254290765729       -7.239691636051738       -10.195433703920603      -10.18178080957809       -8.744295209117734       -8.744977026097537       -9.552880508036598       -9.550496201192072       -6.976738914540109       -6.96921628549936        -8.668142848829564       -8.688249293669937       -1.4004474261710587      -1.4124758211858945      -3.4686731647895637      -3.4515587029550723      4.06661881187013         4.1104923870717585       4.366492490023665        4.423965609877833        4.483218234953915        4.5524060486159845       4.2210916625538          4.303680968379156        0.4448926222451415       0.4613796595068153       0.19777616308631435      0.2152794911596085       3.111837314553558E-5     3.690446955331783E-5
0.09                     0.16597977129453198      0.16574016630919036      19.51859171418989        23.66343104681679        13.911367546908373       13.909398395158385       10.531687225861106       10.52341730987465        -0.34443569940006036     -0.3335979627451062      -5.366803140369216       -5.36939922383298        -6.703087570628936       -6.691157618880588       -8.913663672214149       -8.906273376309299       -5.959361833650293       -5.974724792829139       -5.684444175921881       -5.701197138753633       -4.205398424830426       -4.20130512328635        -5.191892218075869       -5.213260390654806       -4.349517855972984       -4.325871916823544       -6.144055865924751       -6.115469685758024       -4.600214718602983       -4.534565652212645       -3.787019597168338       -3.7200531122540292      -2.3071978216982965      -2.242255435088214       -1.7548749688830023      -1.6862438158902289      -0.06081962172760441     -0.045973053190420325    -0.02254473876731956     -0.004639402576819866    2.523657777955538E-5     4.329545779222972E-5
0.1                      0.07172613562158767      0.07131961288921777      24.583649753212775       29.37363165946652        21.449615970960956       21.478767707959335       16.783712292237055       16.801650089682294       6.730451120852657        6.768840407632183        1.0030805147702486       1.0068412949277135       -1.2477668240780244      -1.251753788929643       -1.7185438660205268      -1.7356730263687878      0.8500954318837233       0.8177039333081841       3.0024359699190972       2.9663263122842123       -0.590110168064548       -0.572157160647407       0.5619857275598561       0.5577780340788565       -10.104111509641948      -10.05073689555655       -9.80839738833307        -9.75430308276557        -17.78929563528863       -17.730591327662676      -15.573668081220887      -15.532170795008879      -12.809278661017046      -12.776331133595491      -10.560910581312319      -10.53095269498539       -1.0064927795071184      -0.9781628433670209      -0.4217462434771595      -0.3738778731637198      1.338248559399247E-5     3.409552015554656E-5
0.11                     -0.08626600497984614     -0.08683539322878837     21.40431978504834        24.48515065072691        24.311086498356772       24.376811699994303       19.36692041594858        19.410520895100916       18.562589837676853       18.61710790918987        13.466416766800585       13.464307257607171       11.572536427426709       11.537499255906955       13.284103570462381       13.231295560201236       9.367670674141214        9.328062961185196        14.047123622973954       14.008593580780683       0.9611302531962997       1.006135061958596        5.212235818608146        5.2350760905046565       -17.18162535861453       -17.113589331803844      -13.474840338511903      -13.408086281260397      -30.940263188585604      -30.90221512390944       -26.820550964520827      -26.809453019332395      -23.95277902207397       -23.94768525488218       -19.730220420518187      -19.746229422855073      -2.1952739984577203      -2.16077271512487        -1.001496417527109       -0.9714559478990424      8.477392390629328E-6     2.315498725176538E-5
0.12                     -0.2911978763223498      -0.29162340074284687     11.881532646724468       11.718275456880384       21.403562888600575       21.480953042900552       18.396498416366235       18.43604333141515        30.3388934372339         30.389658376923634       27.16968929900711        27.1393858776938         26.848320240845485       26.802936546061744       29.569437820638015       29.506679344938956       15.315178110479984       15.285550304783174       20.991927101410475       20.970981796957812       -1.5343939000913092      -1.4975368555022972      4.4967107989934805       4.536084060490429        -22.061451995112773      -22.014479179156787      -16.42481842804017       -16.37562716263809       -35.84686765313249       -35.854652847770566      -30.588456666228137      -30.61257518904589       -27.91579733005608       -27.97117044754616       -23.40048379740519       -23.461987819716924      -2.58526364154938        -2.608843331723037       -1.3341047783161157      -1.3905789353031224      1.493529303518203E-5     2.567155405293521E-5
0.13                     -0.3969258208767116      -0.3978444727352707      5.787503240084436        3.2022938818775146       17.55476629344387        17.605585039063648       16.469799746017642       16.470387532628465       34.77283555148584        34.796991967652346       32.56058016498844        32.513045875866354       33.31778237016499        33.30311285924867        33.981137583097066       33.953835040002126       14.33638313894937        14.338971220265321       18.181252563660376       18.198928292417254       -6.151831396325839       -6.132368326363204       -1.3544003843371972      -1.302601341666486       -21.88463870674497       -21.867915825568634      -16.757641335317885      -16.741699421491717      -28.92167464750727       -28.95545093411275       -23.691975425512958      -23.733683504439803      -20.788759570594213      -20.85254445087073       -17.463717501893257      -17.53657361299218       -1.7775893214465783      -1.8146792381652879      -1.283157857121849       -1.3395577029907002      3.522232825862985E-5     4.17188029763646E-5
0.14                     -0.3662229861797455      -0.3670035914993478      8.766902242001457        4.908586842389983        18.0323074684079         18.01240581973336        15.67282764729778        15.632135379549082       31.38351707280388        31.389562207573597       27.297993717730442       27.247828551820575       27.85835697188496        27.874108018386636       23.83117797917049        23.834613441862178       7.5894563174009635       7.603923137499482        6.646929577547864        6.69077497742763         -10.146437189626887      -10.148951837213604      -8.663963367087945       -8.624715879450672       -17.8719341456759        -17.87398815964428       -14.353785890932638      -14.366975181145406      -16.195392581970808      -16.239206317849387      -12.15388785327162       -12.19290697554625       -8.528765578977485       -8.580416867378734       -7.183233518705478       -7.257774545547037       -0.6670209274911273      -0.7170275224157604      -0.8885776863733337      -0.9239439569375065      5.279549723518842E-5     5.816954434288552E-5
0.15                     -0.2712201465138629      -0.27149972966218106     16.62077797104144        12.96099551451783        21.151346487878843       21.122517729887456       16.275877557258895       16.24264714856271        26.088210978310574       26.09540678528896        18.64140909198138        18.616438070315237       19.700830734254353       19.73549105847954        10.097814219791537       10.136624026765533       0.7822885496075723       0.7939927680185683       -5.748629385443478       -5.687074459952564       -13.27169108861116       -13.296929806141604      -14.848725482778633      -14.817255405925255      -14.426301811664716      -14.454122228464858      -12.155098867881396      -12.195644023461043      -6.2144169955366175      -6.2814528284583915      -3.6759729142088986      -3.724937881882372       0.3008780168862774       0.2496254872990272       0.11640879828049486      0.04914199037086018      0.03401894677525726      0.009626605499290458     -0.5618369459832615      -0.5836962370686114      5.415627526214422E-5     6.231197340448186E-5
0.16                     -0.21697482977254665     -0.21733443798641353     23.64574402435526        20.795320433728165       24.16991107737767        24.135092156807403       17.681659111499606       17.61082023139616        23.17768984873907        23.14727135773511        13.372367106493314       13.307361852104297       17.37788810564168        17.387757861039333       3.309453887074267        3.3245067696496764       -0.0156311218838042      -0.014553518129931397    -11.459456869189985      -11.40619096759613       -14.70322542182158       -14.7223909147423        -17.905529450267558      -17.88077531084966       -13.652163457723212      -13.675251624342827      -11.77644529368461       -11.813312450847683      -2.613305314233088       -2.6608080464006743      -1.2549566111501171      -1.2893276704282195      2.8872899856782173       2.873215535211271        2.1446840192336882       2.109905882287232        0.25583984133611626      0.24557553568024085      -0.43277259788056743     -0.4354737507721397      4.986602710437188E-5     5.6932828833706274E-5
0.17                     -0.3376470671870713      -0.33786071636699966     26.522750318111974       24.281062063665615       24.898287719561946       24.840989314473756       18.3443084286571         18.285340110707914       22.768427185042444       22.741928866959352       12.879459151361823       12.837523424962232       22.276195832289265       22.293513031785846       5.99423585606664         6.036444836322731        8.849497120003416        8.855293957215157        -6.52060683017426        -6.4531242302605625      -9.950466626335235       -9.983545353666301       -14.151322892839486      -14.140324248960637      -13.358552407389226      -13.42037223330933       -11.447473316227207      -11.498720834103093      -5.179453448922306       -5.239441998945804       -4.6125447287824635      -4.657497111662344       -0.3210789574587297      -0.3299129889651612      -0.8984734530810816      -0.9143912441248474      0.06042838356150239      0.04654674064804684      -0.4370027043328369      -0.4280598358931052      6.426594232196583E-5     7.243107074680118E-5
0.18                     -0.7438170356924506      -0.7441277850858659      23.447890458351225       21.07489033662361        22.737705721488545       22.706243877681064       17.384754829599636       17.348645729039056       23.284329781306177       23.284986082169926       15.412574248203015       15.409957394957248       30.035778166239766       30.07037758222415        14.794238490291372       14.8641490832385         26.237156162586786       26.240904701834506       8.869186415403828        8.922878931886697        5.896770128053018        5.84108630897143         0.2863584200302573       0.26195928430734416      -9.136469985009954       -9.218003806499          -7.087638677648943       -7.154145271526929       -11.47760152880365       -11.547518737232966      -10.885696812199637      -10.950631628798556      -7.530160325710593       -7.546878421097217       -7.723959930352098       -7.750479688387159       -0.31259191686849325     -0.33828502278760436     -0.6721542766055404      -0.6449937439094318      1.0057495803587776E-4    1.0920417560151385E-4
0.19                     -1.3515518890247595      -1.352787668510054       15.773815718514086       13.602468473245969       17.68938936824133        17.7356466271518         15.270925792248239       15.300243455162843       22.673787446393014       22.745890732463597       18.658677671512102       18.723888677034225       34.98574251115118        35.03492755756557        24.5255425171757         24.600821697924665       44.37351950941379        44.351712997070265       28.093148788767245       28.102477108582548       29.310533689850097       29.22247790553599        21.755373612467075       21.688920343015972       1.9950068183162553       1.8840350829065848       4.377292789556236        4.295435460034279        -14.304551292215866      -14.419432663298494      -12.322804141932853      -12.423747684400581      -12.712546869585552      -12.789810849882606      -12.786685968713996      -12.871400099666086      -0.38727217748513404     -0.4131020447451917      -1.153014496371574       -1.1334824122012743      2.2343130023574573E-4    1.76375462105535E-4
0.2                      -2.081263053079863       -2.0827967310717077      8.26233881065463         7.478503846128863        11.548622610240432       11.677194376266375       12.779589737379862       12.896679644805314       20.530544762299453       20.687420804970724       21.071031346721785       21.212933119935833       36.532193956729095       36.6047643346807         32.379615454965816       32.453238783307015       54.43749960840225        54.407818269716785       42.7151976599039         42.689159467035985       49.26715722564222        49.186548588306366       39.52572548487994        39.44162113642835        19.267534782411992       19.196709223066037       20.30151664290407        20.216431068098483       -4.864051858424062       -4.982186544607648       -0.8837922210174163      -1.002390208768373       -7.160617174510752       -7.2711659959704775      -7.250700935132301       -7.389896737914467       0.1129500741674172       0.0870289413053342       -0.8287576250407734      -0.8675304638746324      2.833185856027651E-4     3.219026868503459E-4
0.21                     -3.053855553238911       -3.055983794775776       2.8938920741248353       3.981061188222984        6.0523575695673415       6.217641884602793        10.539931880233194       10.705806874673776       17.887640200324945       18.08590633997712        22.878548230780254       23.05992509686996        36.70899102344392        36.80000130044117        38.387127709554164       38.45962692994041        57.01442113443426        56.98648324601839        50.610165897061734       50.54729794731136        60.9386040800338         60.85538312204278        50.83664489013813        50.72586942538321        40.08104861472529        40.01547288024602        39.02956082389221        38.916979818277866       17.327008131148347       17.23162291651043        22.800008529303113       22.69338512593705        9.464269309368953        9.382846880648238        10.092541621211192       9.974729276151319        1.302978466816408        1.3000971197670557       0.18035490860916922      0.09509842374636059      5.086888799154419E-4     6.251936177810463E-4
0.22                     -4.170085542616466       -4.174885768645278       -1.1224362960785292      2.6567614053043522       2.1494870537820336       2.2906832349192565       10.300790811464948       10.421869365788393       15.749838610833969       15.937991376931887       24.522819473289143       24.7144756715211         33.915305096605024       34.022228308679765       41.060217808028284       41.145583380294156       53.865227485857474       53.85299189619157        53.79142132709585        53.72462152547564        66.66334775160787        66.55218346956374        60.69916112151853        60.55300463917875        61.52154442563449        61.44743482261674        61.599144287769214       61.47091950394885        44.84267791315979        44.79045322128647        51.88093962154848        51.842743068926225       29.388948801230477       29.359975715223257       32.55001463936154        32.53139904699328        3.807962842872797        3.7645036271837458       1.982879019518444        1.9385857200918446       0.0010311182111894573    0.0012199074935361346
0.23                     -4.926970606413641       -4.925019018015204       -1.203167840634994       5.969227944620378        2.407317488606969        2.492354353765319        13.48170187842278        13.564481407055933       12.867063907865688       12.995879737180141       24.949585685539674       25.06405040965099        25.820775291374034       25.922924506124076       37.53128643082531        37.60399961666033        44.48175765585225        44.49802357961311        51.754933196890214       51.67700010212065        66.18847193220486        66.08111353430515        68.69858856864377        68.5379659209662         76.72454953177859        76.65230022986358        81.5893123118716         81.4747487853706         66.82331528381232        66.81377181461933        75.30656244255522        75.31633004150885        44.625304548074155       44.625568853864934       50.43405578067723        50.458236747435          6.730392241894355        6.7581780774302755       3.0723923271620674       3.1648271853013994       0.0016148599945303873    0.0018050895441584175
0.24                     -4.81574237713613        -4.81580723489591        5.183099835326555        15.086510359259798       7.8766473705483175       7.900480747105872        19.62451862175139        19.625463664090763       10.710029038163903       10.726536090357584       23.055127270788788       23.084459848874417       15.629398929081683       15.648911497411103       28.92171000948743        28.901633617652358       30.892476385480936       30.915854993373223       43.065641707032015       42.97849939040428        56.799842559569385       56.72506321312824        66.53681195656837        66.39966444250459        76.62097507371958        76.56735968431393        85.61844096884235        85.52691018973518        72.76363907402407        72.72731205105661        81.13807462363295        81.12435958671392        49.949678994617614       49.88137691352898        55.0372190814697         55.01906359973874        10.11780747124601        10.123176324725444       1.3910620586778328       1.5761112915296192       0.0020249169725669513    0.0024100142753807796