% Model:              jellyFish_twobar_fine_fsi_Inflow_demo_ufu015.mph
% Version:            COMSOL 6.0.0.405
% Date:               Jul 2 2023, 12:33
% Table:              Table 1 - Point Evaluation 1
% Time (s)               Displacement field, X component (mm), Point: 1Displacement field, X component (mm), Point: 2Displacement field, X component (mm), Point: 3Displacement field, X component (mm), Point: 4Displacement field, X component (mm), Point: 5Displacement field, X component (mm), Point: 6Displacement field, X component (mm), Point: 7Displacement field, X component (mm), Point: 8Displacement field, X component (mm), Point: 9Displacement field, X component (mm), Point: 10Displacement field, X component (mm), Point: 11Displacement field, X component (mm), Point: 12Displacement field, X component (mm), Point: 13Displacement field, X component (mm), Point: 14Displacement field, X component (mm), Point: 15Displacement field, X component (mm), Point: 16Displacement field, X component (mm), Point: 17Displacement field, X component (mm), Point: 18Displacement field, X component (mm), Point: 19Displacement field, X component (mm), Point: 20Displacement field, X component (mm), Point: 21Displacement field, X component (mm), Point: 22Displacement field, X component (mm), Point: 23Displacement field, X component (mm), Point: 24Displacement field, X component (mm), Point: 25Displacement field, X component (mm), Point: 26Displacement field, X component (mm), Point: 27Displacement field, X component (mm), Point: 28Displacement field, X component (mm), Point: 29Displacement field, X component (mm), Point: 30Displacement field, X component (mm), Point: 31Displacement field, X component (mm), Point: 32Displacement field, X component (mm), Point: 33Displacement field, X component (mm), Point: 34Displacement field, X component (mm), Point: 35Displacement field, X component (mm), Point: 36Displacement field, X component (mm), Point: 37Displacement field, X component (mm), Point: 38Displacement field, X component (mm), Point: 39Displacement field, X component (mm), Point: 40Displacement field, X component (mm), Point: 41Displacement field, X component (mm), Point: 42Displacement field, X component (mm), Point: 1Displacement field, X component (mm), Point: 2Displacement field, X component (mm), Point: 3Displacement field, X component (mm), Point: 4Displacement field, X component (mm), Point: 5Displacement field, X component (mm), Point: 6Displacement field, X component (mm), Point: 7Displacement field, X component (mm), Point: 8Displacement field, X component (mm), Point: 9Displacement field, X component (mm), Point: 10Displacement field, X component (mm), Point: 11Displacement field, X component (mm), Point: 12Displacement field, X component (mm), Point: 13Displacement field, X component (mm), Point: 14Displacement field, X component (mm), Point: 15Displacement field, X component (mm), Point: 16Displacement field, X component (mm), Point: 17Displacement field, X component (mm), Point: 18Displacement field, X component (mm), Point: 19Displacement field, X component (mm), Point: 20Displacement field, X component (mm), Point: 21Displacement field, X component (mm), Point: 22Displacement field, X component (mm), Point: 23Displacement field, X component (mm), Point: 24Displacement field, X component (mm), Point: 25Displacement field, X component (mm), Point: 26Displacement field, X component (mm), Point: 27Displacement field, X component (mm), Point: 28Displacement field, X component (mm), Point: 29Displacement field, X component (mm), Point: 30Displacement field, X component (mm), Point: 31Displacement field, X component (mm), Point: 32Displacement field, X component (mm), Point: 33Displacement field, X component (mm), Point: 34Displacement field, X component (mm), Point: 35Displacement field, X component (mm), Point: 36Displacement field, X component (mm), Point: 37Displacement field, X component (mm), Point: 38Displacement field, X component (mm), Point: 39Displacement field, X component (mm), Point: 40Displacement field, X component (mm), Point: 41Displacement field, X component (mm), Point: 42
0                        NaN                      NaN                      0                        0                        0                        0                        0                        0                        0                        0                        0                        0                        0                        0                        0                        0                        0                        0                        0                        0                        0                        0                        0                        0                        0                        0                        0                        0                        0                        0                        0                        0                        0                        0                        0                        0                        0                        0                        0                        0                        NaN                      NaN                      NaN                      NaN                      0.0036598175976672942    0.004008738758380508     3.1875015106218223E-6    3.1875015106187086E-6    3.543284324380651E-5     3.5432843243829135E-5    8.914811816638865E-7     8.914811816631172E-7     3.91249484055004E-6      3.912494840563937E-6     5.9502069943154085E-8    5.950206992788617E-8     2.69245020026206E-7      2.692450200243863E-7     3.5784218025600734E-9    3.5784218228585575E-9    1.6919597273071788E-8    1.6919597270319338E-8    2.0923230438189822E-10   2.0923230601389835E-10   1.0158058577380144E-9    1.0158058580581908E-9    1.1927582824108134E-11   1.1927590745070554E-11   5.912064039760176E-11    5.912064109410844E-11    6.666770723126702E-13    6.666711622689072E-13    3.3640524576862675E-12   3.364062719319171E-12    3.6457087929213495E-14   3.6468623373729565E-14   1.8810340213825347E-13   1.881105707574228E-13    0                        0                        0                        0                        NaN                      NaN
0.01                     NaN                      NaN                      0.2514287430038546       0.251021505411062        0.2663645631020342       0.2663830762774099       0.26630700106302535      0.266325778893827        0.26018335106898366      0.2602265106624119       0.2600130736577609       0.2600567854622          0.2570575751890216       0.25711787421416044      0.2568022080892621       0.25686334058444293      0.2544846925994967       0.25455613040954905      0.25416095599233574      0.2542334789233406       0.2520688219637396       0.2521482206220745       0.2516930990364976       0.25177379666430383      0.24757383031548505      0.24762984607158098      0.24718529702785086      0.2472429257058362       0.2620369640544615       0.2620878081875034       0.26150492484461835      0.2615572450747627       0.22997195360112876      0.23033785081489105      0.22935957376272734      0.22973122161538218      0                        0                        0                        0                        NaN                      NaN                      NaN                      NaN                      0.20112834736548849      0.20250000727319636      0.12702195552026543      0.12701626322636947      0.12793090025019788      0.1279252199175525       0.03325158426179415      0.03324357728132278      0.03416602513258343      0.034158053804290836     -2.830923839764099E-4    -2.9138696873545197E-4   6.431984289024703E-4     6.349588444049001E-4     0.0013821050469026205    0.0013746557143135322    0.0023127484430183276    0.002305370999251714     0.0061816283710483385    0.0061771372208222       0.007115395667106498     0.00711098972159206      0.006201088549379363     0.0061997519012089745    0.007131645110674092     0.007130403812479362     0.004355528381906502     0.004344043404844067     0.005281184680215212     0.005269812235098098     0.002672674892747402     0.0026180960183460607    0.003594945690657006     0.0035405088881886315    0                        0                        0                        0                        NaN                      NaN
0.02                     NaN                      NaN                      1.220394206049999        1.2205421360413093       1.5189291042846926       1.5189596345502683       1.5220247448773936       1.5220539834364362       1.584268149237424        1.5843839392711292       1.588599311924931        1.588713378091951        1.5012826538285966       1.5014700380428296       1.5054638107875558       1.5056486469267365       1.4987863421917818       1.4991027047770393       1.5029592368507687       1.5032720066063945       1.4526787239349024       1.4529643273376789       1.4570307865650862       1.457312476985078        1.5108356667712342       1.5106497578515898       1.514323017963922        1.5141352956265222       1.7055839268392659       1.7061873205298093       1.7092153425367265       1.7098147677117728       0.9998434252195709       1.0026721273944905       0.991157164304482        0.9939915529388307       0                        0                        0                        0                        NaN                      NaN                      NaN                      NaN                      0.2988307144401688       0.3002053330308052       0.24934321768645265      0.24933323993618667      0.25063327318666756      0.25062326601435714      0.12412717666586955      0.12411001627821323      0.12538242968257224      0.12536522882685733      0.015148276777544701     0.015130876244042288     0.016486026587141052     0.01646858301339736      -0.020118517302285185    -0.020127543489690914    -0.018750417678058563    -0.018759511857614302    -0.007897075191422688    -0.007894740406193299    -0.006515500097418957    -0.006513255562816179    0.007640250789902144     0.007638766372987984     0.00904702311017369      0.009045448271731737     0.011054793851582635     0.011016013928112429     0.012473754885095976     0.012434882348862145     0.006571545282075179     0.006468583952955962     0.007993724723398907     0.00789064883437073      0                        0                        0                        0                        NaN                      NaN
0.03                     NaN                      NaN                      2.0120896252708933       2.0095738791944147       2.7031858527513015       2.7030420955461167       2.6979909506397712       2.6978484264651437       3.2791193914628605       3.2789730815912552       3.282604663650394        3.282459375907072        3.1216597932665393       3.1217267344239925       3.124648505699081        3.1247185033629172       2.818853232284413        2.819055473369916        2.822294429384576        2.822497216396666        2.8565597621606353       2.8556709328282253       2.8587854066065668       2.857909955473904        3.404267943743752        3.403032153589577        3.404595558940519        3.403347835585403        3.2727213979321483       3.275142436163973        3.267231144054129        3.2697373164686017       1.4380710934141978       1.4433543781385203       1.401724547610481        1.4069574529414006       0                        0                        0                        0                        NaN                      NaN                      NaN                      NaN                      0.29645236476617226      0.297642022159439        0.28202824486187467      0.28201762846059303      0.2833567179976108       0.2833460897938242       0.20123991643684863      0.20122311758955044      0.2025240938339273       0.20250727745288483      0.07044946757523224      0.07043846329061725      0.07172470439197763      0.07171369619930833      -0.025627640188740416    -0.02562315186806803     -0.024275308953702855    -0.024270849586622862    -0.04307096601305754     -0.043059225785185534    -0.04171850812022041     -0.041706809140841745    -0.014039799427960796    -0.01404453760721452     -0.0126873444491993      -0.012692103968473416    0.009958860145375973     0.009919615930554723     0.011340862789929273     0.011301574367987347     0.009793938979377763     0.00970651507952396      0.011188116313636455     0.011100652639817684     0                        0                        0                        0                        NaN                      NaN
0.04                     NaN                      NaN                      2.887608284952646        2.883675549359853        3.7205698952098194       3.720163081034355        3.7054697802546945       3.70506434633374         4.830529702034405        4.830458179172152        4.828173475519432        4.828093538659123        4.812182769438004        4.812573203287419        4.81201823142898         4.812406552609782        4.2800621215311025       4.27935277876485         4.281581951813633        4.280866490541344        4.652363545433571        4.6499190231685645       4.646858628521115        4.644423574958818        5.357572109742261        5.357034038817566        5.35807906332827         5.357524803638631        4.461478807745173        4.466792042494134        4.42786541175079         4.433368287398163        1.7557657563420588       1.7630915509847735       1.6917538570173836       1.6989083108924032       0                        0                        0                        0                        NaN                      NaN                      NaN                      NaN                      0.2702809604849582       0.271373658727721        0.2681806508498103       0.26817059615806277      0.26941189213641953      0.2694018428146093       0.23010333331230962      0.23009418332540016      0.23132333263618016      0.23131419351722893      0.12844140043963106      0.1284441594204478       0.12960283508521075      0.12960562442659962      0.00788788966304287      0.007902359356475392     0.009078618858538981     0.009093108025390149     -0.059967254889539044    -0.059951293958793096    -0.05872748151126564     -0.058711511019409926    -0.054583442070587865    -0.05457652087404282     -0.05336695014685639     -0.05336001326524946     -0.018229927212145766    -0.01824818524890215     -0.017005167557255153    -0.017023391132259855    0.0019782422823557207    0.0019000385820063894    0.0032316087131690073    0.0031534988045545417    0                        0                        0                        0                        NaN                      NaN
0.05                     NaN                      NaN                      3.964604050543459        3.960680324611644        4.807764018797198        4.80777385039494         4.791662719101304        4.791662211552851        6.036400749985365        6.036965099951866        6.031019350832024        6.031577520003022        6.352821256089298        6.352819324772634        6.354904726960688        6.35490134216719         6.275469582546511        6.272965434378371        6.276849750295232        6.274356569547859        6.792708537582152        6.789382996508012        6.789243708344128        6.785898861917734        7.055811570123606        7.056946223529959        7.0544019929077155       7.0555968911298805       5.384212273248607        5.3922742885020245       5.318975656427651        5.327282063407271        2.0144674653782437       2.023241178245316        1.9262612134959558       1.9347320027429067       0                        0                        0                        0                        NaN                      NaN                      NaN                      NaN                      0.2556704638870761       0.25675642994441206      0.2515889657886137       0.25158585271104467      0.25276667523210095      0.25276356563519825      0.23001129791179234      0.23001252441302164      0.23118174699485797      0.2311829802436925       0.1626432146022044       0.1626553000730164       0.16377558383260182      0.16378769174770913      0.054974303402720685     0.054999730832522735     0.05608073390253296      0.05610618770657445      -0.04473095112961305     -0.04469610302625401     -0.04357780197735805     -0.04354295905746487     -0.08609351885890258     -0.0860767589215101      -0.08492005043455854     -0.08490328936345946     -0.06409425553636665     -0.06415334303657196     -0.06295415759663321     -0.06301310983414739     -0.01904964312627611     -0.01920442686457961     -0.017902698821296525    -0.018057403064091843    0                        0                        0                        0                        NaN                      NaN
0.06                     NaN                      NaN                      5.218492903586878        5.215418198530084        5.880797360277218        5.881665741127487        5.870160977966937        5.871015272169411        7.0335341153506          7.034358075391849        7.02400567458058         7.0248518406647555       7.919544090153979        7.918061982178394        7.9153626137025945       7.913928683397053        8.633765793864995        8.629403308710897        8.630204997162501        8.62586642418891         9.15012049335299         9.146906892761244        9.150254844518281        9.147029178944795        8.605259074085824        8.608773909775634        8.586799738805615        8.590525341562447        6.060980310110371        6.071746132106618        5.958178018542966        5.969195698547724        2.1755945243939405       2.1855719421568054       2.068957280756473        2.0784984105588085       0                        0                        0                        0                        NaN                      NaN                      NaN                      NaN                      0.2529600037332626       0.25406213889187473      0.24527616581746647      0.2452800973424394       0.24644559311804537      0.24644952716498364      0.225650039188671        0.2256623126318602       0.2268111841073981       0.22682346485543622      0.17668792290934723      0.1767201895039606       0.17782670820760668      0.17785899552384146      0.08850829814185371      0.08856713387999884      0.0896116578984691       0.08967050398126679      -0.01794647050439639     -0.01789339944483344     -0.016829514956217876    -0.016776530886715126    -0.09147671116420932     -0.09151539197586651     -0.09030871889034346     -0.09034745541190543     -0.09145150137501995     -0.09165262415726708     -0.09031859523456989     -0.09051951599648377     -0.03513395015049203     -0.03541469220953264     -0.0340379989009788      -0.03431887862469682     0                        0                        0                        0                        NaN                      NaN
0.07                     NaN                      NaN                      6.742875478432513        6.740812993583281        6.985416040451064        6.986704009227649        6.98006069230375         6.98134625858146         8.018778298209881        8.01854699747077         7.998774787565417        7.998621869153755        9.620465607404942        9.616619950353831        9.591775074574954        9.588044266885028        11.10312948336026        11.097445038096318       11.08933501818762        11.083641392425642       11.507464513386621       11.505355528285085       11.502893644018572       11.500837284585968       10.014578262708035       10.020612082330723       9.955494742414196        9.96189551958489         6.558110292496159        6.5707420646653505       6.412813873568549        6.425641878839663        2.3036774712015182       2.314189100182718        2.18226230374661         2.1922533932362573       0                        0                        0                        0                        NaN                      NaN                      NaN                      NaN                      0.25450868962414525      0.25561652188744766      0.24641725329072234      0.246427514995784        0.24759611724609765      0.24760638943776903      0.22578635962318766      0.22582527124091709      0.22695933303993912      0.22699825898055814      0.17987419180241276      0.17995771164102678      0.18102949041238292      0.18111303107971793      0.1010576732182296       0.10115664710729605      0.10218570775829007      0.1022846283951483       0.003426672110024805     0.0034417089581800504    0.004561233316989191     0.004576068938050323     -0.0707474263544198      -0.07092728201233772     -0.06956846334796732     -0.06974839386549236     -0.07993537344366129     -0.08030082470424585     -0.07877941382315841     -0.07914472270670805     -0.032357291594264356    -0.032709286392897594    -0.0312413317899265      -0.03159365705687956     0                        0                        0                        0                        NaN                      NaN
0.08                     NaN                      NaN                      8.474749232272748        8.473012514172904        8.368149330539008        8.368808912103232        8.36280707436273         8.363467339194248        9.303384179650159        9.301789911965871        9.273620031558691        9.27212804302663         11.394979350066851       11.390190364541098       11.341159038369412       11.336469984705008       13.297116448212435       13.2922982718318         13.277084121645501       13.272205862591386       13.471487751269597       13.471765075787673       13.455632751985021       13.456040545267735       11.2053007149459         11.21345284916411        11.101662153719367       11.11021514058999        7.073303034717834        7.086466728399321        6.891638795169766        6.9049050073629425       2.5002899618308256       2.510492526534138        2.360105398089059        2.369750074935971        0                        0                        0                        0                        NaN                      NaN                      NaN                      NaN                      0.2560517180806429       0.25715896822751         0.24876946773659014      0.2488104348221291       0.24995945027361977      0.25000042974239006      0.22582958294810668      0.22593214196223         0.2270166243724354       0.2271191982560775       0.17531580714373904      0.1754630696933115       0.1764871990884147       0.17663444911959436      0.10035839040297159      0.10045036970366825      0.10151605227432338      0.10160788343141806      0.021401164514520142     0.021300208796669405     0.022572512551388584     0.02247135822811009      -0.03181617226550103     -0.03215533853628531     -0.030622495931704387    -0.030961670396264827    -0.04019107458508007     -0.04063493651907744     -0.03900956948998932     -0.03945342250487822     -0.015460781056989082    -0.015783911998574207    -0.01429325053277729     -0.014616661190382       0                        0                        0                        0                        NaN                      NaN
0.09                     NaN                      NaN                      10.217870789697418       10.216552602500826       10.139126555267048       10.138113438222716       10.134679361225531       10.133671431351223       11.083366091778128       11.080513024609399       11.054083431800015       11.051287404728685       13.175649713247465       13.171708438102891       13.123580559282312       13.119637272498638       14.980967453672315       14.97886629794412        14.96574596379162        14.963569701790814       14.875183674204314       14.878378300950791       14.852582028196045       14.855931535347924       12.219814625533415       12.2292086358724         12.093635613210195       12.10334996374387        7.6911166256483465       7.70380212066893         7.479498974767274        7.492220475276744        2.721408302598494        2.7309794300588193       2.558250261175418        2.5672520431298436       0                        0                        0                        0                        NaN                      NaN                      NaN                      NaN                      0.2560560977179532       0.2571731912499431       0.24689893372660002      0.24701478754857675      0.24809309498197352      0.2482089504923214       0.21842251352243647      0.2186203135942271       0.21961428052479592      0.21981208028220367      0.16456095231143145      0.16473961775897913      0.1657421360018212       0.16592070699295322      0.09907934231663923      0.09908919652365146      0.1002600546212201       0.10026972448366984      0.04463143937085978      0.044383440916047394     0.04582268762821956      0.0455746004291322       0.014473951447167649     0.014045471943479689     0.015670168027496184     0.015241693204264557     0.004835807302498629     0.004433284059502849     0.006032220099893816     0.0056296236899724544    0.0031358692813700873    0.002906573181223795     0.004334615829689396     0.004105199967419482     0                        0                        0                        0                        NaN                      NaN
0.1                      NaN                      NaN                      11.92070374069016        11.919319652474488       12.13719787558779        12.134142251006867       12.133108635904906       12.130078157023682       13.20463301643873        13.200425997229765       13.181563347689723       13.177353340072935       14.976567834426943       14.973845396585023       14.944334725622701       14.941518952318303       16.342565008495626       16.34356499286678        16.33648444238208        16.337427981866036       15.961409071557387       15.96725810755464        15.937640288371135       15.943623804546299       13.148072834666506       13.158175433566214       13.011915142035148       13.022244480205327       8.289471356631733        8.301790995459859        8.04251336251105         8.054861572525706        2.853031141151518        2.8625203836514945       2.6683249544183654       2.677217525407487        0                        0                        0                        0                        NaN                      NaN                      NaN                      NaN                      0.253063518814476        0.2542037894198102       0.23844820587233082      0.23865370992903145      0.23963276754511978      0.23983827143023573      0.20272230894550283      0.20300120705460115      0.2039030148522298       0.20418188302257256      0.1525753568408043       0.15273008710022792      0.15375352347173102      0.1539081179305373       0.1056801164836605       0.10556906601521254      0.10686165400929284      0.10675049655259254      0.07529343999707727      0.0749393264374533       0.07647604723662302      0.07612191480286144      0.05792321786651472      0.05750717391566091      0.05910702237192119      0.058690940797170084     0.03978416905409042      0.039499578080110224     0.04097353867470367      0.040688891342439915     0.015915630526513097     0.015788882392679535     0.017109806206306827     0.016983034806534857     0                        0                        0                        0                        NaN                      NaN
0.11                     NaN                      NaN                      13.61688096474837        13.614431772794163       14.168661874395065       14.163561139344878       14.159766738272133       14.154728745086398       15.438637506212286       15.432882711070025       15.419854498407448       15.414049682976056       16.83860278085499        16.836646884822088       16.824263592216052       16.82218566596467        17.66486014107857        17.668339100602672       17.66449613935783        17.667953077822848       16.992872133697926       17.000923877332195       16.96631751828163        16.974485596415676       14.004355667377977       14.015562795168508       13.851940348656337       13.863337876141738       8.747976124665804        8.761217431971781        8.457169497867177        8.470465492838192        2.8849637959616845       2.8953620340298185       2.68520765583732         2.694909632842043        0                        0                        0                        0                        NaN                      NaN                      NaN                      NaN                      0.24720633801218386      0.2483697467568808       0.22634624513535637      0.22659142489197007      0.22750761603265732      0.2277528032005974       0.1860396384543982       0.1863282165942282       0.187196132041315        0.18748466079870263      0.14636483555925353      0.14645470620859902      0.14752221609345664      0.14761201477176566      0.12112756392609796      0.12092628934499929      0.12228377169436655      0.12208249432422191      0.10809913100693483      0.10772570987356668      0.10925387099507405      0.10888042387253324      0.09215104857914748      0.0918232059901581       0.09330865861924695      0.09298077049609654      0.061391614894626655     0.06123888066218154      0.06255155238614249      0.06239881035075371      0.022335335346168207     0.022286747027905594     0.023499846295654454     0.02345124901618979      0                        0                        0                        0                        NaN                      NaN