% Model:              jellyFish_twobar_fine_fsi_Inflow_demo_uf_freqinf2_example.mph
% Version:            COMSOL 6.0.0.405
% Date:               Jun 29 2023, 12:42
% Table:              Table 1 - Point Evaluation 1
% Time (s)               Displacement field, X component (mm), Point: 1Displacement field, X component (mm), Point: 2Displacement field, X component (mm), Point: 3Displacement field, X component (mm), Point: 4Displacement field, X component (mm), Point: 5Displacement field, X component (mm), Point: 6Displacement field, X component (mm), Point: 7Displacement field, X component (mm), Point: 8Displacement field, X component (mm), Point: 9Displacement field, X component (mm), Point: 10Displacement field, X component (mm), Point: 11Displacement field, X component (mm), Point: 12Displacement field, X component (mm), Point: 13Displacement field, X component (mm), Point: 14Displacement field, X component (mm), Point: 15Displacement field, X component (mm), Point: 16Displacement field, X component (mm), Point: 17Displacement field, X component (mm), Point: 18Displacement field, X component (mm), Point: 19Displacement field, X component (mm), Point: 20Displacement field, X component (mm), Point: 21Displacement field, X component (mm), Point: 22Displacement field, X component (mm), Point: 23Displacement field, X component (mm), Point: 24Displacement field, X component (mm), Point: 25Displacement field, X component (mm), Point: 26Displacement field, X component (mm), Point: 27Displacement field, X component (mm), Point: 28Displacement field, X component (mm), Point: 29Displacement field, X component (mm), Point: 30Displacement field, X component (mm), Point: 31Displacement field, X component (mm), Point: 32Displacement field, X component (mm), Point: 33Displacement field, X component (mm), Point: 34Displacement field, X component (mm), Point: 35Displacement field, X component (mm), Point: 36Displacement field, X component (mm), Point: 37Displacement field, X component (mm), Point: 38Displacement field, X component (mm), Point: 39Displacement field, X component (mm), Point: 40Displacement field, X component (mm), Point: 41Displacement field, X component (mm), Point: 42
0                        NaN                      NaN                      0.01734381398189562      0.018926048718216678     -0.0010254952441520607   -0.0010200708813412136   -9.28757653412792E-4     -9.245883027732411E-4    -1.8051738941275009E-4   -1.8134530490418525E-4   -1.74969208316389E-4     -1.7567211809464136E-4   -5.2137025014172136E-5   -5.240309839561833E-5    -5.144942316305629E-5    -5.164774619734441E-5    -2.978416694820309E-5    -2.9994906181884028E-5   -2.9289762883380698E-5   -2.9492396403434035E-5   -2.03283715307855E-5     -2.0847214967647594E-5   -1.983359554687591E-5    -2.0361318517994847E-5   -1.465640875759367E-5    -1.4919012637898944E-5   -1.4158573664712319E-5   -1.4423220920471133E-5   -1.0814367603833605E-5   -1.0911483253770474E-5   -1.0297727932798054E-5   -1.0403884645554299E-5   -7.484183145569424E-6    -7.534387043553065E-6    -6.930817912728372E-6    -6.9899373070742235E-6   0                        0                        0                        0                        NaN                      NaN
0.01                     NaN                      NaN                      0.894253335045842        0.9044169459153784       0.13065261044240017      0.13062809055274885      0.1285205961318331       0.1284961452099146       -0.2376762354027077      -0.23766169638548684     -0.23483304727780843     -0.2348184133596081      -0.02822690140721927     -0.02825337468282234     -0.025220330823616813    -0.025246331158154188    0.03010272282713636      0.03005848270829865      0.033643541465357474     0.033599644833166416     0.006932542123178145     0.006891141242483486     0.010414693297340427     0.010373803731424453     0.004342000216063573     0.00431697757057788      0.007845553099742686     0.007821070381171464     0.0018543349684597213    0.0018771622190529725    0.005388408709428552     0.0054117161558498465    0.0017365952029334863    0.0016058096551107603    0.005264432308592449     0.00513454334830362      0                        0                        0                        0                        NaN                      NaN
0.02                     NaN                      NaN                      1.913554358947785        1.927199650272194        0.7204232680023098       0.720395525072431        0.7019645828152672       0.7019358150442081       -0.5814330804050123      -0.5814696390632131      -0.5778905356911507      -0.5779272683320331      -0.43338539731627734     -0.43343841859634574     -0.4311166972698309      -0.4311694314002728      0.041034415857444356     0.040914294343290435     0.04624909900419278      0.0461290890493363       0.07085030480009259      0.07075013282022856      0.07698437551936571      0.07688396019781943      -0.027146536770560583    -0.027080989109385906    -0.02112540492442427     -0.02106042359495734     -0.025392320740974292    -0.025354165276972443    -0.01943345000187884     -0.01939531038834002     0.005185639657721908     0.0047628211979814025    0.011196132307495233     0.010773653772961002     0                        0                        0                        0                        NaN                      NaN
0.03                     NaN                      NaN                      3.14543960266151         3.1615947976567784       1.5055855776859444       1.5054739933249526       1.4551271222430975       1.4550132555316777       -0.8557869652294774      -0.8558747869115084      -0.8664235659549394      -0.8665100961529023      -1.1317864637991102      -1.131852313607483       -1.1310769943719852      -1.1311424796565874      -0.15514075049472878     -0.15526007759645302     -0.15665766719587135     -0.15677687365974102     0.2511394568012605       0.25112664913089816      0.25805710401338605      0.2580438244235995       0.010160027699424966     0.010337827994355077     0.016560550543085698     0.016738003820814418     -0.10847967250569673     -0.10855990925238085     -0.10196242511962893     -0.10204206084423378     -0.021694011700783       -0.022374131404405913    -0.01519207174811385     -0.01587102356921477     0                        0                        0                        0                        NaN                      NaN
0.04                     NaN                      NaN                      4.701476638207917        4.719665118436866        2.462997452600447        2.462648459939374        2.355349168192536        2.354990758622067        -1.0562265754654405      -1.056506951936206       -1.1036465262297408      -1.1039187401445545      -2.0020151589524184      -2.002114740427421       -2.0018620762107444      -2.0019632270636816      -0.6867698724095904      -0.6867647267598693      -0.7065723333653458      -0.7065723822236938      0.37671569359298285      0.37695683149533155      0.379277643589946        0.3795156497382064       0.230114634856233        0.2304395603926562       0.23308339702931755      0.23340559632993552      -0.17790293843341748     -0.1781510452245962      -0.17378692835084714     -0.17403804481008991     -0.13285850804766974     -0.13382510145681537     -0.1291274778076552      -0.1300942855397905      0                        0                        0                        0                        NaN                      NaN
0.05                     NaN                      NaN                      6.3171323729697235       6.336456427826889        3.5495296021604488       3.5488626252900115       3.378088992698347        3.377392232801083        -0.952587647296481       -0.953256084469772       -1.0521728202065543      -1.0528203947900279      -2.749348453102361       -2.7494946624312484      -2.74980333471569        -2.74994988219704        -1.5608700468206709      -1.560504825470672       -1.593601223666006       -1.593252486864555       0.09786756709489236      0.09854765183326912      0.08583782064810025      0.0865152853730524       0.4775322736916589       0.47791753159413713      0.47786309462062415      0.4782447913429752       -0.03474277115255472     -0.035381222833353904    -0.03586158140225677     -0.036508308543869286    -0.19516925286191436     -0.19631997542421772     -0.19514011019805685     -0.19629443901011992     0                        0                        0                        0                        NaN                      NaN
0.06                     NaN                      NaN                      7.648078513903531        7.667544097230318        4.6814802586212725       4.6806129425337675       4.478901437536276        4.477977746858617        -0.376111204057625       -0.3772535428688143      -0.5260293818877467      -0.5271507265108129      -3.0920417287336317      -3.0924523799778307      -3.1010955672258302      -3.101489983643094       -2.547080958802568       -2.546490367855293       -2.572382868623954       -2.5718150552727193      -0.7024456119703025      -0.7015405278576253      -0.7317462085049923      -0.7308326343769752      0.4075713214500884       0.4076836609508493       0.40455312302599117      0.4046775128099496       0.33796685481149635      0.3369465947365015       0.3356966288858783       0.3346745599155573       0.014805693266389917     0.014014540174028357     0.013128781649800197     0.012340521543976149     0                        0                        0                        0                        NaN                      NaN
0.07                     NaN                      NaN                      8.755714196237449        8.774365777708162        5.802194582242963        5.801183149284188        5.597402383579733        5.596323099894794        0.5506897924313844       0.5492724433925632       0.3633060903421586       0.361906027009512        -2.9845785051835354      -2.9852131962761983      -3.018718468532705       -3.019316454311039       -3.4045107254929783      -3.4040572630499737      -3.414429102248746       -3.4139871132708053      -1.7990697198690884      -1.7985684375247424      -1.837518059799233       -1.8369950967523148      -0.04614698787441584     -0.04656462246139359     -0.06532827401338927     -0.06572113852777202     0.6780573284862464       0.6772785482182644       0.6757637680659357       0.6749834382065271       0.3806983087757397       0.3810117613170638       0.3760906548650195       0.3764146776114427       0                        0                        0                        0                        NaN                      NaN
0.08                     NaN                      NaN                      9.791640236990366        9.80911111879441         6.899442279126381        6.898284061970662        6.701884787325765        6.700659559582192        1.6388482133125044       1.6373913373760804       1.4287101153914628       1.4272836211510358       -2.5127796085927345      -2.5133889823675646      -2.5846106984318364      -2.585172678563042       -3.962314383900125       -3.962142120973824       -3.9662053500024244      -3.9660349112966045      -2.884824178040424       -2.8849699988465685      -2.920820211330268       -2.9209446311485845      -0.7845926486913581      -0.7851490704590693      -0.826191773558031       -0.8267529829783504      0.6446717271917266       0.644960739106334        0.6370382340981928       0.6373048374667791       0.5754150639584441       0.5770437566607466       0.5688621159892725       0.5704953668208583       0                        0                        0                        0                        NaN                      NaN
0.09                     NaN                      NaN                      10.86989982201904        10.887127033048735       8.029433595097409        8.028288190440787        7.837136440810669        7.835932688607827        2.7449098650371258       2.7435335901930347       2.5182422921165877       2.5168921479477038       -1.8524334481590388      -1.8532508386901234      -1.9604625874039385      -1.9612466353884015      -4.1544846780572415      -4.15497279437125        -4.1645554390035         -4.165044151947828       -3.7415123248961066      -3.742127764222313       -3.7648422614079857      -3.76545879219221        -1.7231936099799263      -1.7231739525569303      -1.7719405226247051      -1.7719761982648818      0.05577976303911051      0.05743312169497232      0.040801502552007984     0.04241845635100247      0.40031375648354417      0.4026154725308691       0.397017769960652        0.3993186962500347       0                        0                        0                        0                        NaN                      NaN
0.1                      NaN                      NaN                      12.115208271409031       12.13307721183049        9.265381446559747        9.264654656704442        9.06831451409805         9.06754236269259         3.817921526359808        3.8167816012638576       3.5691059147720607       3.5679413050779876       -1.1562892925123613      -1.1577082113931536      -1.2933367856157938      -1.294772209220944       -4.062675322133543       -4.064233368117648       -4.0854073863429         -4.086959703802919       -4.336642783582137       -4.337495027650291       -4.345713528809396       -4.346585193526683       -2.777313118290205       -2.7762892553304757      -2.8147401018027924      -2.8137964086721357      -0.9745278346823444      -0.9718626625959106      -0.9963441586550819      -0.993698292939325       -0.07556447929902632     -0.07366018719366432     -0.07842985772087042     -0.07650629249562453     0                        0                        0                        0                        NaN                      NaN
0.11                     NaN                      NaN                      13.555488031194947       13.5737354549873         10.592093414815512       10.591999134108367       10.376922083382226       10.376795025597966       4.877331792618485        4.876489367875466        4.600008354399427        4.599061060428918        -0.42764355166685075     -0.4297144532421571      -0.5900433449711825      -0.5921840333157187      -3.784811261482556       -3.787171159930608       -3.8253704521431144      -3.8277026172823274      -4.750590455036939       -4.751154825072714       -4.753672995661545       -4.754241023954          -3.8786142566067703      -3.876546546575392       -3.90010268594247        -3.8980904545770665      -2.2164375245883794      -2.2138117761809997      -2.2467621539891054      -2.2440973688095363      -0.6819779259773723      -0.6816099272113372      -0.6986277491817435      -0.6982045444605933      0                        0                        0                        0                        NaN                      NaN
0.12                     NaN                      NaN                      14.985608042846371       15.003123070209313       11.874437100927373       11.874488737961048       11.639539217953034       11.639549432877775       5.974662946981508        5.973708275796642        5.676871088745438        5.675774256216964        0.44826849709227096      0.44593672792257477      0.2607712653704249       0.2583815691692376       -3.343655398981296       -3.3456602833205165      -3.4112419802286533      -3.4131758682979756      -5.060550959460285       -5.060069612393697       -5.0712139455482355      -5.070699590583951       -4.93870324494205        -4.9362684511126655      -4.951079599642977       -4.94865495630524        -3.4446955390107017      -3.4435267519725894      -3.4855484074568945      -3.484277469711542       -1.3048467514276956      -1.306204833457891       -1.3507422756482592      -1.3520722471130353      0                        0                        0                        0                        NaN                      NaN
0.13                     NaN                      NaN                      16.084099145799907       16.09948716865431        12.949324139343661       12.948610495565706       12.71498297397504        12.714195623840459       7.137770893823122        7.136205539844842        6.840970020887733        6.839341313878094        1.5292281683473496       1.52752503183072         1.3154000673678858       1.3137482580294924       -2.7565392137938867      -2.7568049809577775      -2.8624012202353026      -2.862558947905044       -5.2614443250648755      -5.259754290390879       -5.291230510095029       -5.289511957099484       -5.798057563395734       -5.796401351164709       -5.80877273520327        -5.807109211198827       -4.438876559201156       -4.43967218976188        -4.489102610547246       -4.489790132480085       -1.8381264745278043      -1.8400651575869194      -1.9181763600709651      -1.92021419801966        0                        0                        0                        0                        NaN                      NaN
0.14                     NaN                      NaN                      16.78403639258731        16.79711475371809        13.770842206633574       13.769245646830237       13.557195619632695       13.555513519959785       8.263756340540885        8.261871774283652        7.984932677013714        7.983108802187276        2.683589606898373        2.6830688825072757       2.448218833437472        2.4478553788245185       -2.04961553766649        -2.0482838170866353      -2.1951612507211644      -2.193744996176677       -5.233272247811853       -5.2315130673543315      -5.285065959103507       -5.283335473816957       -6.278964570254421       -6.278980561839635       -6.290368538428042       -6.290382323194793       -5.0318419675061685      -5.034067102979805       -5.0872173262617135      -5.089384149811953       -2.1641264600890007      -2.165663109936727       -2.26889898478263        -2.2706709986574443      0                        0                        0                        0                        NaN                      NaN
0.15                     NaN                      NaN                      17.308092030380273       17.32083200284385        14.441592663495236       14.440285642905561       14.249161622791108       14.247811084364296       9.199786030590793        9.19879679385178         8.940611121252333        8.9397347889593          3.703306884028488        3.7039652704164157       3.4614162596011213       3.46221371919356         -1.2679190991913645      -1.266252356096368       -1.437309957041448       -1.4356428120824556      -4.879775430630541       -4.8791617714438855      -4.946919041124968       -4.946387858327637       -6.2830358648777755      -6.2848197457139205      -6.2936032874081365      -6.295390453373362       -5.1601889117421855      -5.1633930370208825      -5.214408337773201       -5.217596413018557       -2.227639327156628       -2.229330530665405       -2.338692819417629       -2.3406583820477183      0                        0                        0                        0                        NaN                      NaN
0.16                     NaN                      NaN                      17.897117629587743       17.91185491094097        15.126147156698762       15.126215021512799       14.944675624826345       14.944776271584926       9.944088943813439        9.944911919664175        9.693775509594525        9.694686106180361        4.490757448389245        4.492381690047843        4.254803316982126        4.256452304860625        -0.5122545324057232      -0.5111188275206647      -0.6840292617005155      -0.6829904156393491      -4.27953216174846        -4.2803862361718155      -4.350595598280561       -4.351552910160967       -5.880014698745149       -5.883213547404785       -5.887194637902178       -5.890400540154623       -4.879153428868275       -4.883733066512428       -4.927149745110405       -4.931701340847576       -2.048802479317828       -2.052313627431423       -2.147813239508179       -2.151566024369108       0                        0                        0                        0                        NaN                      NaN
0.17                     NaN                      NaN                      18.72178593658284        18.73922239680048        15.980435955090254       15.98228917293446        15.79735408508132        15.79933001512548        10.62718169450152        10.63012282469949        10.366449550395341       10.369422294622845       5.072254425226554        5.074775686733898        4.8409877517308155       4.843398336266593        0.10715674651932978      0.10777069034003173      -0.055389689407108526    -0.05494208635513511     -3.6332201085808244      -3.63511334787175        -3.6992597708030375      -3.7012665361967096      -5.266180924334936       -5.270702055267726       -5.2687464167876605      -5.273281363292225       -4.321152300242674       -4.328140745461823       -4.362102776159275       -4.369016726843484       -1.7038595951979432      -1.7102836064442821      -1.7790918469579158      -1.7857562573181058      0                        0                        0                        0                        NaN                      NaN
0.18                     NaN                      NaN                      19.926987386634316       19.946474363741444       17.115302985302158       17.118742132983385       16.914608405855045       16.918254609071383       11.37560266409929        11.380298681971961       11.078388022259453       11.083049974770196       5.49982717060372         5.503039754197984        5.258169378505385        5.261162324487282        0.5032004887190514       0.5035839273365189       0.3496158582190789       0.3497973575570855       -3.114626553965885       -3.11717197989294        -3.1708127405400286      -3.173495187614147       -4.59969870348203        -4.60607638693422        -4.598709963117184       -4.605102495323097       -3.6132119806174128      -3.6235766017062048      -3.648412672433295       -3.6586823831238453      -1.299270292842781       -1.3081360671812388      -1.3477624503365198      -1.3569197201178358      0                        0                        0                        0                        NaN                      NaN
0.19                     NaN                      NaN                      21.581531455209557       21.602203745860574       18.54583626608812        18.55042417981485        18.306531523343693       18.31140588436112        12.24778146385379        12.253803252655079       11.88690970589767        11.892859381492986       5.826914053193454        5.831017151974389        5.549994829501212        5.553822113496653        0.637349223391141        0.6381664904971083       0.48628016155724496      0.4868519714513396       -2.767593520838542       -2.770958633687243       -2.8101776277135118      -2.8137353709633146      -3.8922424004435685      -3.9016733967215322      -3.891353250139623       -3.900774050867524       -2.848177763840516       -2.8619393599363736      -2.8764492566306368      -2.8901741547557704      -0.948137828026647       -0.9578295297512525      -0.9754826179120002      -0.9854827011247229      0                        0                        0                        0                        NaN                      NaN
0.2                      NaN                      NaN                      23.500692227718865       23.521724341951156       20.134930128491398       20.139887819609662       19.84122685464699        19.846540230493307       13.225107556067082       13.231992596629802       12.784517476111938       12.791393413723267       6.1547725646340625       6.160252215841779        5.822266257522166        5.827455775057317        0.6606839574403939       0.6621191404536405       0.5079748079817362       0.5090359509788835       -2.4351354472473763      -2.440650290151491       -2.4645837959220627      -2.4703342726429005      -3.102515179262494       -3.115778256363379       -3.10577303645561        -3.118999467233344       -2.130427636349744       -2.1460205919313173      -2.150165863448278       -2.165813022366496       -0.7146544535412733      -0.723462727998389       -0.7310875441273711      -0.740145191759506       0                        0                        0                        0                        NaN                      NaN
0.21                     NaN                      NaN                      25.266703756573126       25.287996565879155       21.63466213373785        21.63946126196126        21.292665267836213       21.297883722864892       14.226318043363145       14.233829588273501       13.715717803265782       13.723353302509976       6.647836407786735        6.65451257591009         6.2712933896404          6.277599476841119        0.9606649311462766       0.9614701702910532       0.809914601529864        0.8101601332297597       -1.8758855361993179      -1.884664759045962       -1.8994219487806023      -1.908426743125088       -2.3152127340185373      -2.3311205645202557      -2.321368517099123       -2.337253910196138       -1.5589288700582848      -1.5742214603215123      -1.5724321704223874      -1.5878097123003385      -0.5558202349547335      -0.5631334321937619      -0.5679420344760225      -0.5754229114957958      0                        0                        0                        0                        NaN                      NaN
0.22                     NaN                      NaN                      26.6712920235326         26.69393296402059        22.926361857308645       22.931060770579425       22.55801270623681        22.563158352607857       15.221798117888854       15.229328143346809       14.672568151030607       14.680212324807016       7.417885836454027        7.423934654598018        7.030426952722639        7.0359413678020495       1.7168762243009126       1.7153228222018049       1.5710690098036342       1.5688667970346222       -1.0728087804752282      -1.08432549309058        -1.0958755195619958      -1.1075952752454705      -1.6280453982057388      -1.6446149004182917      -1.6325625111341728      -1.6491297334469452      -1.1406143128015074      -1.1545262838033215      -1.1489079481355664      -1.1628932083272525      -0.4157083218513685      -0.4217789893780968      -0.4237360138737356      -0.4299146176676591      0                        0                        0                        0                        NaN                      NaN
0.23                     NaN                      NaN                      27.90115083121347        27.925445217644075       24.143906227668083       24.148861568623094       23.765475494659935       23.77086094613912        16.28297230540451        16.28997681700311        15.715998576198087       15.72291951941189        8.402864479267361        8.406749505349216        8.018788504484311        8.021972846223147        2.71741673999332         2.712906211716533        2.572703680715029        2.567562670698956        -0.20222692861760688     -0.21535400576473637     -0.22828649216238636     -0.24158852859706173     -1.0440264542610957      -1.060146626603505       -1.0458283388955572      -1.061946693191442       -0.8232139539360526      -0.8356709413663647      -0.8265414861537284      -0.8390504594566213      -0.2960422968916921      -0.3012249807529415      -0.2995630609333763      -0.30481544492947066     0                        0                        0                        0                        NaN                      NaN
0.24                     NaN                      NaN                      29.22978448331067        29.25499876600231        25.465535822117282       25.47067571624372        25.07964491865204        25.085156231790005       17.48306837336423        17.48901767548019        16.898051700592646       16.903646120620362       9.493223843865046        9.494268678997843        9.102188607082901        9.102396645035327        3.7188431471360186       3.711433048986481        3.566872165983176        3.5588944874633146       0.5916885611280657       0.5775568360758229       0.5593106044445181       0.5450462601856253       -0.5459341780677394      -0.5612681082855301      -0.5474833003098242      -0.5628032613910372      -0.5709249542396917      -0.5820098134976769      -0.5712967698513287      -0.5824121865204785      -0.21043585819348712     -0.21482461903734906     -0.2112453757351953      -0.215678815034756       0                        0                        0                        0                        NaN                      NaN
0.25                     NaN                      NaN                      30.74269468984077        30.768077761518377       26.93433988983314        26.939200300865636       26.53829228333202        26.543437155217514       18.840109163742532       18.844604656192832       18.23312395641224        18.237037498869277       10.668795664605504       10.66712090029179        10.252941798649267       10.250330724821055       4.656730082995033        4.646858977808268        4.486752702664142        4.476371561102117        1.2693309396997945       1.254507959489219        1.2277005748587855       1.2128000035856148       -0.12612050641273206     -0.1404636920672638      -0.130342782925592       -0.14465101477258532     -0.37465981256518577     -0.3842619963004152      -0.37468974549476947     -0.38430097531468366     -0.16339018371747838     -0.16691558659634712     -0.1638937009440652      -0.16744666228814642     0                        0                        0                        0                        NaN                      NaN