% Model:              Untitled.mph
% Version:            COMSOL 6.0.0.405
% Date:               Jul 3 2023, 09:43
% Table:              Table 24 - Point Evaluation 1
% Time                   Displacement field, X component (mm), Point: 1Displacement field, X component (mm), Point: 2Displacement field, X component (mm), Point: 3Displacement field, X component (mm), Point: 4Displacement field, X component (mm), Point: 5Displacement field, X component (mm), Point: 6Displacement field, X component (mm), Point: 7Displacement field, X component (mm), Point: 8Displacement field, X component (mm), Point: 9Displacement field, X component (mm), Point: 10Displacement field, X component (mm), Point: 11Displacement field, X component (mm), Point: 12Displacement field, X component (mm), Point: 13Displacement field, X component (mm), Point: 14Displacement field, X component (mm), Point: 15Displacement field, X component (mm), Point: 16Displacement field, X component (mm), Point: 17Displacement field, X component (mm), Point: 18Displacement field, X component (mm), Point: 19Displacement field, X component (mm), Point: 20Displacement field, X component (mm), Point: 21Displacement field, X component (mm), Point: 22Displacement field, X component (mm), Point: 23Displacement field, X component (mm), Point: 24Displacement field, X component (mm), Point: 25Displacement field, X component (mm), Point: 26Displacement field, X component (mm), Point: 27Displacement field, X component (mm), Point: 28Displacement field, X component (mm), Point: 29Displacement field, X component (mm), Point: 30Displacement field, X component (mm), Point: 31Displacement field, X component (mm), Point: 32Displacement field, X component (mm), Point: 33Displacement field, X component (mm), Point: 34Displacement field, X component (mm), Point: 35Displacement field, X component (mm), Point: 36Displacement field, X component (mm), Point: 37Displacement field, X component (mm), Point: 38Displacement field, X component (mm), Point: 39Displacement field, X component (mm), Point: 40Displacement field, X component (mm), Point: 41Displacement field, X component (mm), Point: 42
0                        NaN                      NaN                      0                        0                        0                        0                        0                        0                        0                        0                        0                        0                        0                        0                        0                        0                        0                        0                        0                        0                        0                        0                        0                        0                        0                        0                        0                        0                        0                        0                        0                        0                        0                        0                        0                        0                        0                        0                        0                        0                        NaN                      NaN
0.01                     NaN                      NaN                      0.08937594712426135      0.08924163358812247      0.09674895786248189      0.09674907486178137      0.09675516767091441      0.09675536129298548      0.0953891155652234       0.09539251642257301      0.09536495069947068      0.09536850050922313      0.09365050205653806      0.09365603976645218      0.09359795705739056      0.09360372795139844      0.09274977974624164      0.09275558509142551      0.09267785823004812      0.09268397653502762      0.09154285006268939      0.09154903528817136      0.09145925567427261      0.09146583219568881      0.09049974828620963      0.09049331832731361      0.09041317221954948      0.09040725900715563      0.096514203645564        0.09650152300226678      0.09639150477870223      0.0963793780605799       0.07925423212191708      0.07935102535067846      0.07916142756544442      0.07926015807820994      0                        0                        0                        0                        NaN                      NaN
0.02                     NaN                      NaN                      0.40143449699929074      0.40154878707151515      0.5165507208637463       0.5165622518767833       0.5179637235637852       0.5179751086413831       0.5530789991321926       0.553127449369821        0.554787756927255        0.5548360076765162       0.5230689053158626       0.523165568673108        0.5247384989043204       0.5248348433242435       0.5105219795333482       0.5106690542791301       0.5122073202506018       0.5123538956301957       0.499500131909907        0.49960561297577494      0.5012328755172379       0.5013379282096033       0.5334307267692896       0.5333949807582071       0.5350157901305801       0.5349797352865786       0.570780863009883        0.5710719731604144       0.5723609287683409       0.5726514305580029       0.32010546633077686      0.32101486234648335      0.3206599078953364       0.3215696618477404       0                        0                        0                        0                        NaN                      NaN
0.03                     NaN                      NaN                      0.5951596709671179       0.5944466837428894       0.8899346633214277       0.8898936700027194       0.890383498347115        0.8903425891149971       1.1253513877775991       1.1253445665454394       1.1274775256757175       1.1274706631530556       1.0635608404381365       1.063666962194758        1.065661411799677        1.0657677001504595       0.9514873127939952       0.9515744489253862       0.9536468738719874       0.9537339887493121       0.9864753681789421       0.9862111987487289       0.9883631481720553       0.9881004353149079       1.144321088476849        1.14412184921223         1.14615044748692         1.1459498923636986       1.0424017107697794       1.043455564258717        1.0434597999023787       1.0445221129852647       0.4474173183840306       0.4492325826211649       0.44588811765795117      0.4476964889195646       0                        0                        0                        0                        NaN                      NaN
0.04                     NaN                      NaN                      0.7091578394088146       0.7074984341320302       1.155933581295683        1.1558178596409483       1.1533344810914945       1.1532184921913033       1.6676098563608672       1.6676500130738328       1.6687675901159882       1.6688064555789246       1.6516877934264385       1.6518462305553208       1.6534216626386715       1.653579632502019        1.4568464211277032       1.4565758008554361       1.4587174030367718       1.4584466157065203       1.5712298613489906       1.5705001696413403       1.5722276524993073       1.5714982261903518       1.7549177408926213       1.75506363973021         1.7565682816878345       1.7567136718088476       1.4040839178030857       1.406159733854276        1.4020020889320937       1.4040965468236761       0.5306963185978483       0.5331608081681487       0.5263171809265368       0.5287619120721796       0                        0                        0                        0                        NaN                      NaN
0.05                     NaN                      NaN                      0.8408076131755841       0.8386778956050139       1.365952995232168        1.3660201897764248       1.36107701820502         1.3611416599374822       2.0737891370547623       2.0740151127434823       2.0732853433625746       2.0735108804564675       2.2490994642759574       2.2490325220644065       2.2509788227040093       2.2509117769722238       2.159746586643569        2.1588670542646264       2.1614599861044557       2.1605811168173013       2.251968737265505        2.2510514797758345       2.2531578464477113       2.252238420096715        2.2722015929165273       2.2729688437977837       2.2732689047819954       2.2740445441625106       1.6816478201888403       1.6845757015303184       1.6760709477690365       1.6790222377002784       0.605882167787165        0.6088307305783761       0.5989228635819185       0.6018398234272693       0                        0                        0                        0                        NaN                      NaN
0.06                     NaN                      NaN                      1.0013834940424706       0.9992127970459936       1.5288745525025798       1.529316171662036        1.5232082180637483       1.523645483529006        2.3728675197297555       2.3731956656196527       2.369430515635192        2.369766096725933        2.861959393503473        2.861372989572517        2.862724449974994        2.8621447335402164       3.011616167061           3.0101562896732035       3.013016304970797        3.0115576118036738       3.0152673557477168       3.0144263087786536       3.0165039367650666       3.015665197340877        2.731954534208414        2.733400825221747        2.7307612526374863       2.7322319384443583       1.877845907039365        1.881540883799257        1.8684696541941175       1.8721902019725412       0.6560632722411877       0.659447662281288        0.647103924051825        0.6504451997206356       0                        0                        0                        0                        NaN                      NaN
0.07                     NaN                      NaN                      1.1959847093819473       1.193901098586405        1.6653754128731633       1.6660578570321585       1.6595596716098042       1.6602387855806193       2.6241532618352847       2.6243403696699295       2.6157035770331323       2.615911528972959        3.4837222811915183       3.4825342186118293       3.479989243565597        3.4788187512812208       3.9272741597826033       3.9253843714271683       3.927565921462179        3.925675789241694        3.8391942038139577       3.8385705341274963       3.8386313122867564       3.8380217408258446       3.1820357932601424       3.1841815319224955       3.175042212203186        3.1772337719231656       2.0051900877504685       2.0095646743044844       1.9903559783490126       1.9947546542672225       0.6650998759075066       0.6687812372374468       0.6544934381500623       0.6581219917067873       0                        0                        0                        0                        NaN                      NaN
0.08                     NaN                      NaN                      1.4660839367635738       1.4640847068854093       1.8428908857095605       1.843406077108584        1.837187156659927        1.8377025763299206       2.8823819559500845       2.8821379983035302       2.867925078924588        2.8677118193733846       4.084468113646719        4.082805906326145        4.073379004111008        4.071740675516264        4.8162114838714745       4.814196399308192        4.814650867744665        4.812631606780511        4.667130179608472        4.6669005080569095       4.66322035707147         4.6630194139348005       3.6435671213806375       3.6463890852882628       3.6272360710484657       3.6301246070591513       2.113441047832857        2.1183353156154725       2.091268879682364        2.0961821212354708       0.653229597036784        0.6570784859595912       0.6409248495709805       0.6447142370760398       0                        0                        0                        0                        NaN                      NaN
0.09                     NaN                      NaN                      1.83580293900359         1.8339146315468373       2.13581517982115         2.135818612147365        2.1304275165423077       2.130435202486133        3.2049535654377306       3.2041417834366843       3.1863230021075073       3.1855399991142868       4.634623532632191        4.632803117624772        4.616712544178923        4.614908581690232        5.585388518332098        5.583727403701873        5.582121887790934        5.580451347466356        5.415305237955563        5.4156821658886205       5.408460192082132        5.408874787358348        4.115467053404204        4.118810411305563        4.0895786947618795       4.092998549512718        2.2730886205668117       2.278257969827796        2.2430687296892042       2.248252217863915        0.6658590081861209       0.6698087314601769       0.6514869270516502       0.6553719078139307       0                        0                        0                        0                        NaN                      NaN
0.1                      NaN                      NaN                      2.270624750813917        2.2688843023224297       2.561630723673594        2.56091752854222         2.556602343699338        2.5558982113297715       3.6324641479843303       3.6310026097468255       3.6131280801166508       3.6116837444748073       5.134344136045508        5.132572202426622        5.1138392920795805       5.112063404573865        6.185964021581369        6.185007247306778        6.182141071025182        6.18116931682802         6.027640785853076        6.0288219645528125       6.020034825404795        6.021254312738249        4.588621414762046        4.592428268772512        4.556869462725274        4.560749798003469        2.522279543463636        2.527622856982061        2.485309438674593        2.490663511571713        0.7304631683637864       0.734524503550034        0.7134580466568279       0.7174472763970482       0                        0                        0                        0                        NaN                      NaN
0.11                     NaN                      NaN                      2.70529239104238         2.703543917613451        3.069524343249884        3.0680803229713685       3.064240140654028        3.0628118882044832       4.162603233396463        4.160516479276975        4.144766825065385        4.142683064419149        5.61524551561511         5.613619258500644        5.596765372074614        5.595112791908726        6.646859975671992        6.646715908496394        6.643757999506662        6.643594940556173        6.512357714353794        6.514383146173513        6.505954315685822        6.50801362079383         5.053156374731401        5.057390796863701        5.019835569131102        5.02413279592738         2.8431197607327796       2.848598870913121        2.8000016489030535       2.8054893046232676       0.836534840966308        0.8407403755185198       0.8159467744584332       0.8200705432110938       0                        0                        0                        0                        NaN                      NaN
0.12                     NaN                      NaN                      3.0968863925822827       3.094798795606137        3.587109427933216        3.5850199062409667       3.580095775821753        3.578031646451309        4.757317270002233        4.7546413057117745       4.740730207266768        4.738046255361081        6.115775441011373        6.114220520216907        6.101389029446556        6.099792031478943        7.044347467022502        7.0448972535037795       7.042567705894862        7.043096800012587        6.91921612314159         6.922018259230364        6.914418911712354        6.917250642810626        5.497197617832698        5.501904950008           5.46434086257518         5.469101863353489        3.1876768568046834       3.1934611709251266       3.1383346366452787       3.144128122294097        0.9572673734314687       0.9617841382686688       0.9318934169283504       0.9363134681820195       0                        0                        0                        0                        NaN                      NaN
0.13                     NaN                      NaN                      3.4500075870565294       3.447369750155596        4.069022726055453        4.066476980605831        4.058876254311948        4.056366732167591        5.364779297686335        5.361652280625265        5.347661614845712        5.34451965465161         6.658929604023342        6.65736247661764         6.647992478629091        6.646375988955386        7.45587386386969         7.456898711572013        7.455341077643106        7.456346629585054        7.299349160607915        7.302798600961198        7.295287233329648        7.298765706054426        5.904146646280883        5.9094705840469945       5.8714638542444435       5.876841112390354        3.5107619897611726       3.517182929630039        3.455005382211424        3.4614367765101064       1.0742450156893333       1.0792736721240788       1.0432565985630173       1.04816516485363         0                        0                        0                        0                        NaN                      NaN
0.14                     NaN                      NaN                      3.7973795527476795       3.794245697806789        4.510103166025967        4.507319654066553        4.496626633117302        4.49388846069176         5.942600859795823        5.939183367452862        5.923094445891342        5.919659448470073        7.242791304155862        7.241093943294106        7.233355453393087        7.231606736760383        7.934375143741538        7.935565890046627        7.934665174940398        7.9358405050513525       7.692307013849308        7.696256625696547        7.687586687007113        7.691572036008004        6.259718073216529        6.26588581813168         6.225520649883053        6.231753571301013        3.780501967706895        3.7879676396253488       3.718795742824305        3.7262718243038497       1.177059660034464        1.1828164494101259       1.1405414115830097       1.1461445423596146       0                        0                        0                        0                        NaN                      NaN
0.15                     NaN                      NaN                      4.1686208625558345       4.165192899574354        4.928493198679504        4.9256404814173385       4.912658012721581        4.909856333071772        6.474928960156133        6.471325762869886        6.451912649968424        6.44829481000615         7.848514017330884        7.846528368740539        7.838565277339976        7.83652793197109         8.494678705031832        8.49572172486963         8.49530014542663         8.496332171794995        8.124895493639714        8.12925322917758         8.117952422326281        8.122363460498564        6.566009272195682        6.573318120374808        6.527675793771941        6.535075124952241        3.977592098433222        3.98650416449068         3.9104782877586906       3.919394762572818        1.252329856535785        1.2589414101619858       1.211422891758345        1.2178361525781436       0                        0                        0                        0                        NaN                      NaN
0.16                     NaN                      NaN                      4.5801802614713045       4.5766516632415986       5.34796930540311         5.345178621482092        5.331075622756217        5.328337889934414        6.971755810983798        6.968055275832355        6.945001949294878        6.94129495088344         8.455214363193885        8.452847500893542        8.443239387354282        8.440821302523544        9.115600080600087        9.11632646628759         9.116182508715973        9.116901248441781        8.605231398581957        8.610011349026884        8.594527422836416        8.599390737094792        6.840617260983724        6.849302223009931        6.794859970230951        6.803670104006008        4.097319077763817        4.10780007128704         4.024491989831052        4.034956975774731        1.2868714551673541       1.2942087008516368       1.24347326404529         1.2505681150412704       0                        0                        0                        0                        NaN                      NaN
0.17                     NaN                      NaN                      5.03738872593227         5.03388304006795         5.790192664855997        5.787526709965776        5.773218913119401        5.770607259716855        7.456060074522978        7.452231591898199        7.426149604786761        7.422327465626801        9.049053869292932        9.04622341271661         9.034367702480585        9.03148582468748         9.75730185098473         9.757730464787915        9.757688748751633        9.75811109771004         9.117127296211274        9.122491163620701        9.101535813414174        9.10702251376128         7.100753027135755        7.110907816394978        7.044430097318768        7.054744602780364        4.1560379889160135       4.167994538378585        4.076544839131082        4.08845686916765         1.281818738113894        1.2897684158495195       1.23778071005051         1.245450665788416        0                        0                        0                        0                        NaN                      NaN
0.18                     NaN                      NaN                      5.532976775244942        5.52954550707442         6.267965897724328        6.265387261535144        6.251306646537006        6.2487832429369705       7.951695112001679        7.9477142121206645       7.919723291047476        7.9157616337324646       9.62606307802229         9.622820876308277        9.609018234732229        9.605722228153306        10.380335304666275       10.380662802869061       10.380587850286357       10.38090956415107        9.626272929070685        9.632404251575313        9.605393389085535        9.611689245043964        7.3539520783164525       7.365544465579147        7.285310367481844        7.29709085987355         4.186367033373248        4.199598823400972        4.099417160367191        4.1125694576668765       1.2541511578269062       1.2625466225577253       1.2105334958394287       1.2186196271584886       0                        0                        0                        0                        NaN                      NaN
0.19                     NaN                      NaN                      6.045032052655526        6.041645121587308        6.779193247420875        6.776561315539657        6.762579318345742        6.760005410959671        8.47531386872014         8.471140671356391        8.4423512103081          8.438202106788008        10.190850142448133       10.187425584733658       10.172673040961092       10.169187603290279       10.959230885904562       10.95979633841097        10.959538993927923       10.960101092149607       10.099033305071659       10.106093937983726       10.073106218863368       10.080368460791263       7.599502692267826        7.612419964075423        7.518843687408487        7.531966128305814        4.2209236151421266       4.235182033456573        4.126406284422016        4.140547430750539        1.225739530341483        1.2344374568469207       1.1826339754124104       1.190999668399771        0                        0                        0                        0                        NaN                      NaN
0.2                      NaN                      NaN                      6.545638374728955        6.542181799552668        7.3074835499723765       7.304644558482564        7.290048780700162        7.287273238107139        9.032534820293977        9.02814632704301         8.999028111586494        8.99465904648623         10.753880713943618       10.750533845949626       10.736078208822272       10.732659224255249       11.488986444813326       11.490133763475448       11.489470142050935       11.490620969714204       10.518988118991611       10.527094225961404       10.488441145773518       10.496776871425938       7.833628194426583        7.847711635384767        7.742693590972122        7.756986914699062        4.277284954594609        4.292353358014415        4.175709239641956        4.19062515994682         1.2115733711528662       1.2205014991270977       1.1684028403889808       1.1769788269810642       0                        0                        0                        0                        NaN                      NaN
0.21                     NaN                      NaN                      7.01811180837808         7.014434382939268        7.833238433042414        7.830093673023342        7.813843915477712        7.810770235172875        9.616968417037755        9.612385466141314        9.582526549332375        9.577950819998613        11.326342792170506       11.323296118681801       11.309992302419397       11.306860731253257       11.982221584395676       11.984226416288267       11.98274033819955        11.98476137385153        10.887919963110676       10.897167672139897       10.852869170406914       10.862365653984602       8.052691368450192        8.067808324905538        7.953558646878455        7.9688781411676235       4.357247891102342        4.37295049784506         4.249440601054618        4.264958180935978        1.21693796953169         1.2260397440606348       1.172847662218446        1.1815787921988081       0                        0                        0                        0                        NaN                      NaN
0.22                     NaN                      NaN                      7.466549954605815        7.462547318339559        8.34632650927486         8.342845779907938        8.324077281887782        8.320675863298453        10.214375072998358       10.209659084126498       10.178136278197245       10.173410210368864       11.912852511386694       11.910275791348221       11.898288907882552       11.895615023868356       12.458545019970273       12.46160397111752        12.458660300804095       12.461754045762039       11.218907706103026       11.229376384574588       11.178919134387035       11.189649560618673       8.254045134139616        8.270092164507927        8.148328132386533        8.164558522200211        4.453481420955161        4.4696510897239          4.340408859804708        4.35636360738754         1.2398968690390388       1.2491278464546505       1.1940718361416218       1.2029159686651458       0                        0                        0                        0                        NaN                      NaN
0.23                     NaN                      NaN                      7.909509857315575        7.9051691255132095       8.850150517685757        8.846368290060175        8.82479044243435         8.821095550697           10.810124318901194       10.8053370449783         10.771427106936525       10.76660953192821        12.507778497387495       12.505781656627818       12.49478025862538        12.492674572636721       12.933682837605309       12.937918636981802       12.932816179267833       12.937109589140157       11.530350305344376       11.542088929447655       11.48458541140845        11.496594809403346       8.438830250668314        8.455737744531648        8.327230044984065        8.344294068475826        4.554588548764591        4.571123416915846        4.437117047579764        4.453409164216268        1.273461167723378        1.2828011704834734       1.2254218600201288       1.234360631434605        0                        0                        0                        0                        NaN                      NaN
0.24                     NaN                      NaN                      8.366161100932704        8.361543661981381        9.355179895757196        9.35120731737619         9.327098927477985        9.323218899878361        11.39508423138355        11.390339502743318       11.353931923552109       11.349136733047665       13.098656543582635       13.09731961920989        13.086837623030437       13.085381305627134       13.413851303429315       13.419312837864933       13.411547120774197       13.417090285895881       11.841417329497505       11.85441847638431        11.789032305458774       11.802310663888774       8.614269239071612        8.63199051374166         8.496380321451273        8.514229420787306        4.648809841204189        4.6656846369999965       4.527262452735095        4.5438684071636795       1.3066520134291968       1.3161008280162414       1.2564449671553453       1.2654788430687056       0                        0                        0                        0                        NaN                      NaN
0.25                     NaN                      NaN                      8.846427540185216        8.8416206509181          9.869629663401373        9.86560933076169         9.839557776909443        9.835630526178617        11.966446959401944       11.961924689739233       11.923465617936962       11.918873275662698       13.674183150393548       13.673595024395748       13.663249708016664       13.662534355343093       13.897568488634393       13.9042306649485         13.893665188203636       13.900430835317746       12.166514334612335       12.180718137702698       12.106999486658239       12.121486180099605       8.79081002770037         8.809328964869566        8.66527000915883         8.683890701641126        4.72817235206586         4.7454272794100705       4.6020795097365115       4.619040028034756        1.3289820653672055       1.3385631556365034       1.2771222831101503       1.2862745928296744       0                        0                        0                        0                        NaN                      NaN