% Model:              jellyFish_twobar_fine_fsi_Inflow_demo_uf_freqinf.mph
% Version:            COMSOL 6.0.0.318
% Date:               Jun 24 2023, 20:18
% Table:              Table 12 - Point Evaluation 1
% Time (s)               Displacement field, X component (mm), Point: 1Displacement field, X component (mm), Point: 2Displacement field, X component (mm), Point: 3Displacement field, X component (mm), Point: 4Displacement field, X component (mm), Point: 5Displacement field, X component (mm), Point: 6Displacement field, X component (mm), Point: 7Displacement field, X component (mm), Point: 8Displacement field, X component (mm), Point: 9Displacement field, X component (mm), Point: 10Displacement field, X component (mm), Point: 11Displacement field, X component (mm), Point: 12Displacement field, X component (mm), Point: 13Displacement field, X component (mm), Point: 14Displacement field, X component (mm), Point: 15Displacement field, X component (mm), Point: 16Displacement field, X component (mm), Point: 17Displacement field, X component (mm), Point: 18Displacement field, X component (mm), Point: 19Displacement field, X component (mm), Point: 20Displacement field, X component (mm), Point: 21Displacement field, X component (mm), Point: 22Displacement field, X component (mm), Point: 23Displacement field, X component (mm), Point: 24Displacement field, X component (mm), Point: 25Displacement field, X component (mm), Point: 26Displacement field, X component (mm), Point: 27Displacement field, X component (mm), Point: 28Displacement field, X component (mm), Point: 29Displacement field, X component (mm), Point: 30Displacement field, X component (mm), Point: 31Displacement field, X component (mm), Point: 32Displacement field, X component (mm), Point: 33Displacement field, X component (mm), Point: 34Displacement field, X component (mm), Point: 35Displacement field, X component (mm), Point: 36Displacement field, X component (mm), Point: 37Displacement field, X component (mm), Point: 38Displacement field, X component (mm), Point: 39Displacement field, X component (mm), Point: 40Displacement field, X component (mm), Point: 41Displacement field, X component (mm), Point: 42
0                        NaN                      NaN                      0.008660261264422207     0.00946072266809864      -5.119573393406367E-4    -5.085507703011592E-4    -4.633771321541476E-4    -4.6054220261692696E-4   -8.996018440908125E-5    -9.030213593409225E-5    -8.718625375335927E-5    -8.746220725993751E-5    -2.5960332377033508E-5   -2.6139529928051776E-5   -2.562648808482663E-5    -2.577114628584923E-5    -1.4822799426293707E-5   -1.498321359917609E-5    -1.459242682376166E-5    -1.4747530019613017E-5   -1.0097973767475745E-5   -1.041496460245922E-5    -9.870520510180885E-6    -1.0190273274903089E-5   -7.264065531009041E-6    -7.450881838775273E-6    -7.036047106386239E-6    -7.22215588033076E-6     -5.353419392048448E-6    -5.447651394856948E-6    -5.116213967963652E-6    -5.213169661086052E-6    -3.705490807416523E-6    -3.758658791983272E-6    -3.4496327761112805E-6   -3.505534443033728E-6    0                        0                        0                        0                        NaN                      NaN
0.01                     NaN                      NaN                      0.42915549685484533      0.43414896444082623      0.07005267391876917      0.07004354143979259      0.07079089184126924      0.07078171593036278      -0.10985941792846166     -0.10985661381282621     -0.10825481617050131     -0.10825199002041869     -0.014751773203391124    -0.014764195429036625    -0.013040932830198965    -0.013053183065007306    0.01535404093044731      0.015334747610148318     0.017240276221758874     0.01722116011672595      0.004869737968931733     0.004847798411489722     0.0067295917602171965    0.00670791137421199      0.0029860514251786956    0.0029716846450881886    0.00485487190142995      0.004840784968459606     0.0014059685703002806    0.001414914109593844     0.0032882553507527536    0.003297451950143633     0.001133634922486752     0.0010660256933261289    0.0030128963578366745    0.0029457042843472224    0                        0                        0                        0                        NaN                      NaN
0.02                     NaN                      NaN                      0.8282081263164704       0.8345160338437801       0.3473253136679498       0.3473129013974028       0.34689284657228064      0.34688010203620845      -0.2099062594696322      -0.20992986358818114     -0.20714266234004883     -0.20716636505223623     -0.1976472535508503      -0.19766503607147637     -0.19493884602220987     -0.19495674298772295     -0.001051793545530972    -0.0010878395905856704   0.0021152977087186904    0.002079171525104774     0.03294238238215752      0.03291498623468064      0.03639664005768989      0.03636903981905115      -0.004128192664998722    -0.004094517846716554    -7.261140828150889E-4    -6.927344805367551E-4    -0.009175892349523858    -0.00916851099903968     -0.0057987003067933186   -0.005791463689759103    0.0024651988728913534    0.0022414317767921314    0.005852171089836223     0.005628407827478407     0                        0                        0                        0                        NaN                      NaN
0.03                     NaN                      NaN                      1.1589869396819514       1.1658139044151632       0.651932619842523        0.6518482711702243       0.6507168786505748       0.6506316097240707       -0.19050667028807025     -0.19060278523287355     -0.18904717525360853     -0.1891430444843459      -0.4312489858812663      -0.4313071029986256      -0.42723449343840214     -0.42729275331873534     -0.13372933176198967     -0.13376236910122785     -0.1306382032115354      -0.13067154526506197     0.07372847181343005      0.07376780766187678      0.07820146800676654      0.07824049556189303      0.029936902880920786     0.030048205294795776     0.034465602692476546     0.03457670899924299      -0.026510168142205512    -0.02654538812861274     -0.02205524360110941     -0.022090389242642033    -0.00806516914391322     -0.008451886450310258    -0.0036445745594040303   -0.004030959459178347    0                        0                        0                        0                        NaN                      NaN
0.04                     NaN                      NaN                      1.4382025702658976       1.4451814425799094       0.9412012463975834       0.9410187904792177       0.9397565725803059       0.9395719920926723       -0.09878395014771908     -0.0990118145902584      -0.10047310843410523     -0.10070037426173106     -0.6401919212215957      -0.6403264750941716      -0.6351950106469583      -0.6353295578097576      -0.3618083176397685      -0.3618001605788938      -0.3593889250501403      -0.3593824194160972      0.06624318118677477      0.06641487476793971      0.07058007227298017      0.07075082640396324      0.12090615438834859      0.12110449437563536      0.12619291045403846      0.12639089229757355      -0.013487395490027518    -0.013610018454199749    -0.008296135692380021    -0.008419283952279982    -0.0316337344422463      -0.03223877054432797     -0.026574540569291934    -0.027179416168556885    0                        0                        0                        0                        NaN                      NaN
0.05                     NaN                      NaN                      1.6940692474092696       1.7010535182591755       1.2108922031646097       1.21059747688843         1.209274205901123        1.2089757916064343       0.021374306082057332     0.020968814953678708     0.015470507640713681     0.015065496807208626     -0.8195760520151011      -0.8198293346407778      -0.8148303721318707      -0.8150823665734244      -0.642873938836256       -0.6427868408303029      -0.6408952326825399      -0.6408123137408758      -0.012958999333204116    -0.012576782309675419    -0.010429893772350303    -0.010049537202938994    0.23371641342805036      0.23401328617876963      0.2394507734927239       0.23974763297739307      0.06569485555044727      0.06539031191946044      0.07118847657745257      0.07088207787309649      -0.033201653562149554    -0.03404751704419737     -0.027728216496948392    -0.02857473168089896     0                        0                        0                        0                        NaN                      NaN
0.06                     NaN                      NaN                      1.9614117756752425       1.968419767688693        1.4720333633815545       1.4715758010336188       1.4697187636224622       1.4692549643856068       0.14001765734180363      0.1393516891218457       0.12900920485147002      0.12834339230581956      -0.9870976206636786      -0.9875225952552886      -0.9840876181952095      -0.984508020784774       -0.9555146296493569      -0.9553256961925873      -0.9535558784359703      -0.953374335630561       -0.16309953335838803     -0.16245790274669014     -0.16393533727425758     -0.16329608165100165     0.3366746700771467       0.33702306014410277      0.34217200753493804      0.34252321736179847      0.2272627254536198       0.22670838120602324      0.23280859772624252      0.2322515501748079       0.023405745291168546     0.022465816699006717     0.029079828362002375     0.028138874536092144     0                        0                        0                        0                        NaN                      NaN
0.07                     NaN                      NaN                      2.2820017281312204       2.289174288955312        1.7430032828834534       1.7423240067618488       1.738699133956293        1.7380092000012908       0.23752470471077458      0.23651353174844075      0.22013850466309726      0.2191277876906848       -1.1639777320206857      -1.1645875189111776      -1.1641173137561536      -1.1647163049166285      -1.297368500045054       -1.2970527172541497      -1.2951826855556774      -1.294876452693463       -0.3767847580457607      -0.37598163437131105     -0.3824181431572489      -0.38161436193474646     0.4251037958316181       0.4253259588387919       0.4286817703954551       0.42891327791913025      0.47184781341555465      0.4711348872573165       0.47734115450185316      0.4766266028055802       0.1463074151585914       0.14564126455392704      0.15150224818065908      0.15083668658991084      0                        0                        0                        0                        NaN                      NaN
0.08                     NaN                      NaN                      2.7093197768627193       2.7169095946117197       2.0464732044055234       2.0454708545094937       2.03745321433338         2.0364331082307814       0.29809372804091794      0.2966924039558455       0.27218905496533363      0.27079240222870754      -1.3717421458633123      -1.3724528667684948      -1.3763265505481543      -1.377016923932057       -1.6714637903640952      -1.6710012643242698      -1.6692163319838385      -1.6687628730268582      -0.6372582102907991      -0.6365469385073694      -0.6494097886972633      -0.648687634792874       0.5080965742815826       0.5080029218678204       0.506815518923856        0.5067361318196926       0.7807635711445058       0.7802726652114303       0.7859268379468412       0.7854363711544566       0.31971741065424314      0.31986294671198484      0.32297796481933494      0.3231257678903182       0                        0                        0                        0                        NaN                      NaN
0.09                     NaN                      NaN                      3.3012542820908597       3.3096149756128166       2.4094161556326195       2.4079075644963175       2.3903444842754245       2.3888059837439246       0.3031096952634371       0.3012808240724154       0.26505587054013535      0.2632465935117813       -1.6340206028135755      -1.6347011846967416      -1.643848769593084       -1.644498051311881       -2.067046966945583       -2.066540724651827       -2.0654087630011375      -2.06490800547792        -0.9125079163465502      -0.9122236294333828      -0.9328872580327916      -0.9325784999553005      0.5821872345674626       0.5817858331672249       0.5728625574088868       0.5724657947086754       1.1046993359810366       1.1049742033894843       1.1090560987489182       1.109331848207991        0.5142548835204609       0.5156615058419389       0.5137954872619692       0.5152001652224818       0                        0                        0                        0                        NaN                      NaN
0.1                      NaN                      NaN                      4.079346864752694        4.088823744416192        2.8536378909673474       2.8516336800092104       2.8159919841067382       2.813942005926525        0.24729644090829228      0.2451701554335643       0.19147639651342946      0.18939412145601636      -1.9645096686718724      -1.9650854594069531      -1.9793793986883885      -1.979918415406895       -2.453149990057459       -2.4528512508975076      -2.4531532802493152      -2.4528545853412305      -1.1620893513865027      -1.1624036481377025      -1.1910806849412288      -1.1913682364270621      0.6174055263690802       0.617072137677315        0.5991163723892833       0.5987540614765849       1.3567443773746237       1.3583252370027732       1.359819502478001        1.3613986564222673       0.6837165982182489       0.6865046614406323       0.6787738403198527       0.681545515214554        0                        0                        0                        0                        NaN                      NaN
0.11                     NaN                      NaN                      4.979724164106029        4.99049362174954         3.374749947001747        3.3726063948522027       3.309737536862552        3.307535834970237        0.17219566127644592      0.17003186689009464      0.09236189125091998      0.09025528729715104      -2.3282385864604267      -2.328952649748729       -2.347310173472492       -2.347994212797311       -2.7922991621281392      -2.792597329801541       -2.7948548708132943      -2.795148932254614       -1.366644530562515       -1.3673728154731497      -1.4022002014767756      -1.4029270683644837      0.5671921094620737       0.5675212413780863       0.5429719365437288       0.5432309286644122       1.4383223308379198       1.4413831675807318       1.4398990194200063       1.4429549981232879       0.7672201719904167       0.7710409125546193       0.7593488892375768       0.7631355650030107       0                        0                        0                        0                        NaN                      NaN
0.12                     NaN                      NaN                      5.860406466404422        5.8724231011384385       3.93471791520663         3.9328546946091865       3.840521607710958        3.838592161784231        0.16980716296215698      0.16762518567303644      0.0632092450132087       0.0610548172282016       -2.6252868811216086      -2.6268071183243173      -2.6481128480185103      -2.649619071759922       -3.0571512641720933      -3.0584323390668176      -3.061979573430354       -3.0632618681739547      -1.5486632949456758      -1.5493432920274115      -1.5865916140533893      -1.5873240884503415      0.3933846488893374       0.3949949622506268       0.3684708969783737       0.36998403542052044      1.2945012131823983       1.2990154448553004       1.2949488475247966       1.2994571020521366       0.719851400776269        0.7242289579715937       0.7124670331135348       0.7167985682384207       0                        0                        0                        0                        NaN                      NaN
0.13                     NaN                      NaN                      6.598095603778286        6.611132171364547        4.492712914161038        4.491351108926102        4.378247043756027        4.376810237941918        0.32298080718800376      0.3206441002187327       0.19272735714483094      0.19034562754821707      -2.7585105858791943      -2.7613301264360124      -2.785615480712824       -2.7884394415378475      -3.242932115094267       -3.245339709398042       -3.24785348288119        -3.2502761116990295      -1.7562728418199778      -1.7565945524462172      -1.7916752264451439      -1.792107700857203       0.08648041286181132      0.0895372057281265       0.06475928970582269      0.06771302515214063      0.9557851615148666       0.9613853673408815       0.9560418607873624       0.9616378571481721       0.5548369034052799       0.5591907772235247       0.5508603329054909       0.5551702534343759       0                        0                        0                        0                        NaN                      NaN
0.14                     NaN                      NaN                      7.189046879533901        7.202722322262571        5.045240411969307        5.044220461627386        4.923357820357247        4.922247825204178        0.6484755258533876       0.6457209721133624       0.49994114513687815      0.4970573753613473       -2.7162019304847242      -2.7204320581530324      -2.7497094603326446      -2.7539572955867224      -3.3836775000842985      -3.3870213673454117      -3.3861433959010467      -3.3895134403175144      -2.0350537346745887      -2.034767166274465       -2.064449077501451       -2.0643164161400573      -0.33654228219464943     -0.33202802319502694     -0.35414613389108596     -0.34972941193047813     0.5105552411393572       0.5169069662972173       0.5112589475532194       0.5176117741768511       0.33851032010902593      0.34242586792762325      0.338505323580668        0.34239144535838306      0                        0                        0                        0                        NaN                      NaN
0.15                     NaN                      NaN                      7.724370061900768        7.738228312602019        5.620976961696499        5.619748604400679        5.499986652131259        5.498639867915979        1.1134421213000152       1.1098073964689168       0.9496412398083788       0.9458129747918825       -2.5535903775516537      -2.5592184237460214      -2.597895302076635       -2.603542166673945       -3.536999211026689       -3.541010764113437       -3.5362785739573925      -3.5403129341436546      -2.4196269250706344      -2.4185704823753675      -2.4420523517429125      -2.4411722062480727      -0.8521403763824794      -0.8462653748717109      -0.8672336080764228      -0.8614477211164384      0.043941142382796824     0.05075541706355456      0.044436602866492925     0.051264627148608286     0.13763699127597304      0.14091817282480057      0.14005940204068945      0.14333319701933406      0                        0                        0                        0                        NaN                      NaN
0.16                     NaN                      NaN                      8.309184089773193        8.322904739905955        6.246338188550756        6.244475289516529        6.127387596376404        6.125368385796248        1.6733688716240864       1.6685984673950096       1.4949993510095785       1.4900046333098111       -2.317719179974082       -2.3244533253558113      -2.379091306735234       -2.3858256904575086      -3.73964017575181        -3.743886840411113       -3.737634429707313       -3.7418762104258625      -2.933754556357402       -2.931830634950039       -2.949930384947912       -2.948179784367161       -1.4485595260679673      -1.4416534096180877      -1.4643481620743655      -1.4575198968827627      -0.3969613488574939      -0.3900912816435394      -0.3989267441934237      -0.39201867389942224     -0.016603605470985307    -0.014024460958771068    -0.013965058552489609    -0.01136978603876848     0                        0                        0                        0                        NaN                      NaN
0.17                     NaN                      NaN                      9.001778026363622        9.015245056564883        6.924559372988092        6.9215372623560345       6.803803129279058        6.800570449820298        2.2896367939527686       2.2833393471477352       2.097737321407855        2.0912248345427242       -2.0139947250656927      -2.021600413080619       -2.0986380060004333      -2.106191110575001       -3.973926569061554       -3.9779652491949067      -3.9754977198853445      -3.9794771817085923      -3.5735491694075274      -3.5707579437413894      -3.5844453097267848      -3.5817997158007078      -2.1286775021008513      -2.121219946890571       -2.1488146359255214      -2.141420481959878       -0.8188105693877         -0.8122367404547297      -0.8268085306484875      -0.8201650975292363      -0.13493914158636888     -0.13291276626709805     -0.13405531653306058     -0.13199451238989066     0                        0                        0                        0                        NaN                      NaN
0.18                     NaN                      NaN                      9.788461856151521        9.801628380634854        7.635698741785987        7.631154406976436        7.5083671022950655       7.503547872546229        2.932183153007206        2.924237368488708        2.7291163175271107       2.7210132943458607       -1.6314767245106168      -1.639460237290807       -1.7425903537027196      -1.7504269211158112      -4.167582294414742       -4.170846967020539       -4.180137403939654       -4.183270265629121       -4.2726611352841255      -4.2691544462001385      -4.279012560897273       -4.275599232827584       -2.8935056280918485      -2.886206559763349       -2.9196113927341765      -2.912353190154087       -1.286827855294763       -1.2809420300843795      -1.3048076011125815      -1.2988238673243235      -0.2669766345816763      -0.2654162263295187      -0.26990623327233904     -0.26829609416521577     0                        0                        0                        0                        NaN                      NaN
0.19                     NaN                      NaN                      10.593474247255216       10.606253769877695       8.347815271948953        8.341669222066944        8.212350653612987        8.205868181571534        3.5809738166234544       3.571592233805423        3.3693133888426408       3.3598718430718204       -1.176331086978113       -1.1841148829676977      -1.3122165289444325      -1.319736160293022       -4.232729384623134       -4.2348582013198115      -4.2628036615808975      -4.264736552757286       -4.900950047092746       -4.897043023180177       -4.9041225863038465      -4.900251803003197       -3.712650680998439       -3.7061428363378064      -3.7412606020644654      -3.7347651335667122      -1.8865159928222948      -1.8817780712156431      -1.9166526031351676      -1.911797020756017       -0.4826370176339923      -0.48177164548742885     -0.4927095745478211      -0.49178207611123687     0                        0                        0                        0                        NaN                      NaN
0.2                      NaN                      NaN                      11.33425202954155        11.346578784148173       9.023301352620393        9.016242591644426        8.882075166036158        8.874653444913989        4.2195750834029715       4.2096876499395615       4.002259280712121        3.992403830517478        -0.6646068448737584      -0.6715928474387585      -0.819440695677428       -0.8260720699252958      -4.117630718152989       -4.118523871958994       -4.167306877566286       -4.167966975813902       -5.34138070240012        -5.337219405466973       -5.34453177484248        -5.340366456757233       -4.518590063622522       -4.513097003349293       -4.542957544997483       -4.537447226246562       -2.6391250686991397      -2.635943386980599       -2.6801390749458727      -2.676818753981615       -0.8175605929300219      -0.817835755827855       -0.8406321850235599      -0.8408435349863344      0                        0                        0                        0                        NaN                      NaN
0.21                     NaN                      NaN                      11.964220416643563       11.976022256945287       9.620751456496725        9.614023978681397        9.477235069063495        9.47017083651286         4.82848624679289         4.819400270558179        4.610475022100193        4.601460344549098        -0.10078215837658273     -0.10659993292231816     -0.26708172334944086     -0.27252524672691475     -3.8227153210271223      -3.822643494901733       -3.8910047565470554      -3.8906874383518435      -5.561822875036209       -5.557556548655297       -5.569918155961509       -5.565629140048327       -5.2351483453390175      -5.230724774950485       -5.251737615685091       -5.247277393571507       -3.455006335133423       -3.4537568611292695      -3.5036929824446115      -3.502276597359741       -1.2263517967846487      -1.2281202559356725      -1.2697384521569113      -1.2714759382899026      0                        0                        0                        0                        NaN                      NaN
0.22                     NaN                      NaN                      12.455991918086827       12.467151251605548       10.107110995226316       10.10191554651371        9.964828729625214        9.959373455640964        5.392412328361507        5.385376327702634        5.1804073198393334       5.1734293945579495       0.5084198711279456       0.5040903715232767       0.33732511033268653      0.3333107919094532       -3.391863810493317       -3.3912663255720146      -3.4775156425123974      -3.4766912991927112      -5.598422516009463       -5.594553543332367       -5.616474749250598       -5.61258252052192        -5.792965234490151       -5.789925389974821       -5.803480137603349       -5.800404750242369       -4.179160590574118       -4.179944681925541       -4.232647020531867       -4.233252300087826       -1.6107848902343391      -1.6137932023545152      -1.6782083141330009      -1.6812669625334085      0                        0                        0                        0                        NaN                      NaN
0.23                     NaN                      NaN                      12.795705505601148       12.806257765841258       10.480591198364804       10.47763041581753        10.343968812739494       10.340861990059228       5.906482018484185        5.902436950559793        5.705759856141347        5.701745560750211        1.125395719742551        1.1229736766779175       0.9537429735012627       0.9515167061094306       -2.9004660882308304      -2.899779254820945       -3.001389912969473       -3.0005488825640128      -5.498201165904656       -5.49570361717116        -5.528076128053051       -5.525575383224532       -6.128315987136963       -6.127401322968762       -6.135875919282471       -6.134939002380086       -4.668421515119432       -4.671178671781198       -4.724281916018024       -4.726887508780354       -1.875599008350231       -1.8793506049965922      -1.9626366732827099      -1.9665443702715524      0                        0                        0                        0                        NaN                      NaN
0.24                     NaN                      NaN                      13.015005313007777       13.025356297483613       10.780776186516885       10.780351787132977       10.653896063817793       10.653453440948024       6.369174504583641        6.368675721017491        6.180680197265679        6.1801987564332155       1.6873362065267554       1.6873212598641647       1.5169638416045228       1.5169984700494654       -2.427483725655014       -2.42686853399986        -2.5389114592579745      -2.5382769318766325      -5.294425400314026       -5.2941382361753915      -5.332959658774568       -5.332712507984635       -6.204991263211784       -6.206908281234808       -6.210890371299203       -6.2127950878334115      -4.847473496736721       -4.852224049614727       -4.903310994400552       -4.907964396235638       -1.9657331366809216      -1.9701670567792884      -2.0607599197701814      -2.065435264490815       0                        0                        0                        0                        NaN                      NaN
0.25                     NaN                      NaN                      13.191067421188          13.201788456721484       11.071810465210058       11.07384289449491        10.956349375402375       10.958483406555883       6.787322747664842        6.790400287005553        6.6074359569636405       6.610529607315834        2.149016625439482        2.151545885158988        1.9798676772973216       1.9822998297409642       -2.0266288452424295      -2.026059581410951       -2.1422602019435573      -2.1418362745905157      -5.024973946040394       -5.027178666991831       -5.065974901672471       -5.068278769777746       -6.047282296822661       -6.0524001960721         -6.051197785488608       -6.056306710303921       -4.727234218572962       -4.73440000262169        -4.781212168637774       -4.7883294400309255      -1.879398551508716       -1.8851639369223978      -1.9691088793842415      -1.9751729404805387      0                        0                        0                        0                        NaN                      NaN