% Model:              Untitled.mph
% Version:            COMSOL 6.0.0.405
% Date:               Jul 2 2023, 20:58
% Table:              Table 19 - Point Evaluation 1
% Time (s)               Displacement field, X component (mm), Point: 1Displacement field, X component (mm), Point: 2Displacement field, X component (mm), Point: 3Displacement field, X component (mm), Point: 4Displacement field, X component (mm), Point: 5Displacement field, X component (mm), Point: 6Displacement field, X component (mm), Point: 7Displacement field, X component (mm), Point: 8Displacement field, X component (mm), Point: 9Displacement field, X component (mm), Point: 10Displacement field, X component (mm), Point: 11Displacement field, X component (mm), Point: 12Displacement field, X component (mm), Point: 13Displacement field, X component (mm), Point: 14Displacement field, X component (mm), Point: 15Displacement field, X component (mm), Point: 16Displacement field, X component (mm), Point: 17Displacement field, X component (mm), Point: 18Displacement field, X component (mm), Point: 19Displacement field, X component (mm), Point: 20Displacement field, X component (mm), Point: 21Displacement field, X component (mm), Point: 22Displacement field, X component (mm), Point: 23Displacement field, X component (mm), Point: 24Displacement field, X component (mm), Point: 25Displacement field, X component (mm), Point: 26Displacement field, X component (mm), Point: 27Displacement field, X component (mm), Point: 28Displacement field, X component (mm), Point: 29Displacement field, X component (mm), Point: 30Displacement field, X component (mm), Point: 31Displacement field, X component (mm), Point: 32Displacement field, X component (mm), Point: 33Displacement field, X component (mm), Point: 34Displacement field, X component (mm), Point: 35Displacement field, X component (mm), Point: 36Displacement field, X component (mm), Point: 37Displacement field, X component (mm), Point: 38Displacement field, X component (mm), Point: 39Displacement field, X component (mm), Point: 40Displacement field, X component (mm), Point: 41Displacement field, X component (mm), Point: 42
0                        NaN                      NaN                      0                        0                        0                        0                        0                        0                        0                        0                        0                        0                        0                        0                        0                        0                        0                        0                        0                        0                        0                        0                        0                        0                        0                        0                        0                        0                        0                        0                        0                        0                        0                        0                        0                        0                        0                        0                        0                        0                        NaN                      NaN
0.01                     NaN                      NaN                      0.03936021884500761      0.039303199786753736     0.044511502151276985     0.04452343889197413      0.0445304627133053       0.04454242156366819      0.045236672278227204     0.04526056166620908      0.0452471661738477       0.04527109701214015      0.04396099884288763      0.04399186404306819      0.043959934401784875     0.04399086616324439      0.043156214208023486     0.04318871332932384      0.043147850814831974     0.04318044235668276      0.04265907261810983      0.04268850488099826      0.04264684708490443      0.042676402321611163     0.043163705893212154     0.04318109377522648      0.04314881442146327      0.04316637828255617      0.04517207467821879      0.045183067942405265     0.04514668990240706      0.04515787859673938      0.03361468393978379      0.033664618724077854     0.03360954717620285      0.033660201187174506     0                        0                        0                        0                        NaN                      NaN
0.02                     NaN                      NaN                      0.16126387145377727      0.16130988946335864      0.21184638718580917      0.21187057213543484      0.21247331865701025      0.2124974527398024       0.23210394143480464      0.23214557732035168      0.232826187992607        0.23286777930218494      0.21978812449046978      0.21983142464164698      0.22049865695794912      0.22054189095368046      0.21179437048896652      0.21181662492912032      0.21250982482312644      0.21253198033265297      0.20938537758290995      0.20933756653076574      0.2101134680013481       0.21006561247664765      0.22514997755417565      0.22501347696623725      0.22583918109246415      0.22570268110585628      0.23297814137980805      0.2329735107616918       0.23366299838630142      0.2336581595803528       0.12715932330852325      0.12744329949571953      0.12776188821843762      0.12804638350332972      0                        0                        0                        0                        NaN                      NaN
0.03                     NaN                      NaN                      0.23015461455520383      0.22990279880599235      0.3558752830893198       0.3558342926733069       0.3564747862468643       0.35643387778386254      0.45893242134848683      0.4588688309258321       0.45991156017901413      0.45984795313625243      0.43754129782395945      0.43749229761766834      0.4385375479504874       0.43848848689951636      0.39409342282102566      0.3940298831981052       0.3950825862962851       0.3950190261227502       0.41030816837940054      0.4101390540390418       0.41122668455234407      0.4110577801216634       0.46425155367416426      0.4641544132527203       0.46515903014922155      0.46506164658792076      0.4106662766125459       0.4110464260879574       0.41147911328731424      0.41186022104435793      0.17525384404361977      0.17589888009166318      0.1757616312906352       0.1764059272810439       0                        0                        0                        0                        NaN                      NaN
0.04                     NaN                      NaN                      0.25944254986507764      0.2588221375654868       0.45474223125727803      0.45473145498874823      0.45481399167474706      0.4548031704815343       0.6713698483870139       0.6713683553205241       0.6722304184811214       0.6722289095200759       0.675794802638227        0.6757585240092261       0.6768336678348192       0.6767973065515368       0.6107246427617005       0.6105191921597485       0.6117264390857033       0.6115211328651909       0.6478199082065597       0.647512539186226        0.6486578379189796       0.6483504899074726       0.6959004711671201       0.6959587933525416       0.696822317670304        0.6968807303872602       0.544833216943233        0.545561401519654        0.5452509936011146       0.5459815168371337       0.20647057618387485      0.20732873846397704      0.2066158760186431       0.20747175878240656      0                        0                        0                        0                        NaN                      NaN
0.05                     NaN                      NaN                      0.2812399125487241       0.28037919415206025      0.5203235123731098       0.520421987587519        0.5198492177810718       0.5199470783866631       0.8362541988252219       0.8363643657416624       0.8367444824196674       0.8368550094669476       0.927287996281843        0.9271849924825064       0.9283138889938348       0.9282110638425413       0.9004487101763852       0.9000415030199265       0.9014059137227171       0.9009989035657233       0.9176805454267423       0.9173309549486596       0.9185299372175624       0.9181801398334939       0.8925312847945797       0.8928070260113039       0.8933110291690702       0.8935881668835174       0.6461616926435287       0.6471779849520709       0.6460378608049255       0.6470571793562797       0.2327685932059307       0.2338024858867437       0.232531773113156        0.23356183009818812      0                        0                        0                        0                        NaN                      NaN
0.06                     NaN                      NaN                      0.3026632865114967       0.30171840048603166      0.5551632563251667       0.5554048013943617       0.5543204086981484       0.5545609448765324       0.9552492667903847       0.9554139566794249       0.9549662910444154       0.955132783275824        1.1913319780483367       1.1910897687841158       1.192023662354434        1.1917828209763774       1.2536134456036419       1.253049392580044        1.25446373495404         1.2538998398150187       1.2195454093675084       1.2192323834971452       1.220296695972772        1.2199843427623835       1.0642308788190753       1.0647185095824039       1.0645298625445532       1.0650211216084142       0.7132246558640557       0.7144822278469464       0.7124602764196548       0.7137212049275793       0.2479759885630977       0.2491475960000767       0.24741073525826865      0.2485771167578486       0                        0                        0                        0                        NaN                      NaN
0.07                     NaN                      NaN                      0.3202223402354629       0.3192053817841379       0.5722036826341063       0.5725059140562644       0.570939881859885        0.5712411630858052       1.0559885361971972       1.0561165450346863       1.0543738782805476       1.054505664235968        1.4578135154007745       1.457428811275501        1.4575348109489887       1.457152971317064        1.6291313512695855       1.6284805495526458       1.6296921069685857       1.6290412804843217       1.5443881439746732       1.5441492186641255       1.544618534404173        1.544381995379074        1.2345352632284763       1.2352117960775768       1.2336986047376002       1.2343815867664971       0.755390182242028        0.75682271819734         0.7536315830902062       0.7550673821906116       0.24633334918980285      0.24756575710228151      0.2453970440706272       0.24662320033087093      0                        0                        0                        0                        NaN                      NaN
0.08                     NaN                      NaN                      0.3467365016607129       0.34562870786272837      0.5924059788146182       0.5926395406039969       0.5906653172961356       0.5908984145867459       1.1545432075134747       1.1545629041928156       1.1512240024064297       1.151248595882071        1.714504206755603        1.714039776116173        1.7127318680486134       1.712271109321247        1.9968679625958825       1.9962350389660637       1.9969913574020421       1.99635813024661         1.8765437111436203       1.8764272026259066       1.8759296676231467       1.875817375293796        1.413794632988539        1.414627435570955        1.4111601616959328       1.4120020329191985       0.7903842776522145       0.7919145468364481       0.7872461670821046       0.7887794585042027       0.23490713161415214      0.23616633491631375      0.23353928342201577      0.23479173677268578      0                        0                        0                        0                        NaN                      NaN
0.09                     NaN                      NaN                      0.400479856386058        0.3993007817537512       0.6394512014402679       0.6394944438525754       0.6373347906841773       0.6373785217224359       1.2621523274650879       1.2619829788777162       1.2572435662289851       1.2570785965026388       1.9507766949285614       1.9502803730596419       1.9474087351716378       1.9469151355867782       2.3322248356999404       2.3317145093897067       2.331925990936265        2.331414971476697        2.1939321501958533       2.1939892928836855       2.192496159479331        2.192558774224129        1.6029407588984392       1.6039103299907687       1.5982902102725534       1.5992706367788014       0.8417117053934201       0.8433201604070126       0.8370419250598101       0.8386532611107709       0.23020884226621183      0.23149627440084736      0.22839466644074832      0.22967477982897497      0                        0                        0                        0                        NaN                      NaN
0.1                      NaN                      NaN                      0.48684084833009655      0.485628725030459        0.7269682456387568       0.7267617545712158       0.7246515708270843       0.7244469220732533       1.3895455993134922       1.3891292311894268       1.3836117511493515       1.3831981286038952       2.1624910653241907       2.1619689176412598       2.157943770939538        2.1574215524854425       2.617305271868576        2.616977186687279        2.616765875607972        2.616436499187317        2.477026005833864        2.4773093104861625       2.4751276685836863       2.4754170188320455       1.7998587945762194       1.8009837116693155       1.7936105135093015       1.7947467532386432       0.9269865386714086       0.9286746881800916       0.9209087098525224       0.922599524996318        0.24557600320898137      0.24691881559965595      0.24332987543080822      0.2446645246237036       0                        0                        0                        0                        NaN                      NaN
0.11                     NaN                      NaN                      0.595367198090695        0.5941259557797512       0.8528222281831676       0.852385452673738        0.8503825676993123       0.8499490348297726       1.5441386168515596       1.5434940710939344       1.5378463487530225       1.5372027535647894       2.353729132035877        2.3531858646435335       2.3487696207795703       2.3482229555149408       2.84625378022622         2.8461211419921915       2.845723394085908        2.845588688694179        2.7171257830866535       2.717654877293942        2.715261591436345        2.7157966453819538       2.002247171661388        2.0035310609097206       1.995204663890159        1.9964994002670613       1.0500954603019959       1.0518860328185764       1.0428332451751068       1.0446266339689305       0.284047539629548        0.28549304136020576      0.28132333611007027      0.28275923566746164      0                        0                        0                        0                        NaN                      NaN
0.12                     NaN                      NaN                      0.7100576936368523       0.7087415315260444       1.002615871752082        1.0019944950472284       0.999950198200498        0.9993336219674344       1.7246685803282813       1.723817667295627        1.7184273905719427       1.717576280997823        2.5346353522002865       2.5340407643468628       2.529984817723219        2.5293840526443585       3.029301910357613        3.02932047692995         3.0289804387041706       3.0289961631510516       2.9181105552949984       2.9188737341367057       2.916645686493388        2.917414716578698        2.206248256372185        2.207731699218205        2.19915339918371         2.200647296617002        1.2021462011391477       1.2041216486835047       1.193841941216229        1.1958206573936774       0.3401174016156757       0.3417340732062598       0.3367371323986415       0.3383416634112299       0                        0                        0                        0                        NaN                      NaN
0.13                     NaN                      NaN                      0.8201583252937843       0.818705703522788        1.158899181870581        1.1581379623965276       1.1557857104795473       1.1550309737077562       1.9209209211864684       1.9199102218403248       1.9147754662228107       1.9137636962869096       2.7154965913989706       2.7148455743423376       2.7115055137152333       2.710846874267253        3.1881664658319604       3.1882623261332244       3.188138439875831        3.1882310055097762       3.0929981250215777       3.093937165355017        3.092025276727356        3.0929702925904747       2.405744285566206        2.407458654308993        2.3989796998280983       2.4007052053168874       1.366827655475029        1.3690738928905395       1.3574946357396354       1.3597448505085177       0.404485015923051        0.40634021936917225      0.40018273296748863      0.40202207373163934      0                        0                        0                        0                        NaN                      NaN
0.14                     NaN                      NaN                      0.9231418605729058       0.9215196024786246       1.3084859210724802       1.307624411279027        1.3047320898439159       1.3038786783405323       2.1186589523936377       2.1175228223231723       2.1123945576777703       2.1112569951321642       2.902602691921683        2.901883814806511        2.899208688078197        2.8984815561429533       3.3466351739052516       3.3467407273247427       3.346876044116594        3.346978220616894        3.258577897649859        3.259636281150057        3.257970376196817        3.2590352582691042       2.5947013840918296       2.596685102834012        2.5882329136702356       2.5902300350666305       1.5257182171454247       1.5283548854224291       1.5152884765669279       1.517930448590559        0.46746306867776405      0.4696390773545889       0.4620271262413747       0.46418178000247856      0                        0                        0                        0                        NaN                      NaN
0.15                     NaN                      NaN                      1.0213648412500873       1.0195839108084594       1.4448633212705078       1.4439402882492127       1.440420326137282        1.4395068920545437       2.3054643273364994       2.304216328809316        2.298772441312491        2.2975235760280994       3.097246285188478        3.0964155306343932       3.094119357762169        3.0932799862375275       3.5231096616041735       3.52317751777626         3.5235293861208983       3.5235937895334977       3.43032717371707         3.431482484765368        3.4298587327162333       3.431021640676319        2.7692537409778097       2.7715571760217954       2.762735401869367        2.7650559952211644       1.6638666469632264       1.666985267181294        1.6522469331672092       1.6553718189863138       0.5212445921666816       0.523765614459203        0.5146345877305435       0.5171272598136246       0                        0                        0                        0                        NaN                      NaN
0.16                     NaN                      NaN                      1.1178542116333257       1.115953140886585        1.5670198269081588       1.5660750878287795       1.5619754498295613       1.5610414560989558       2.4750247207549534       2.4736917232887716       2.4676091535581035       2.466276690747503        3.2974875401894965       3.296500876092909        3.29419538009907         3.293200400965607        3.7259892991688863       3.725940324877334        3.726473613723576        3.726420929572111        3.6181715932976073       3.619421573702791        3.6175935620378556       3.618853455364428        2.9290567227063327       2.931754550542344        2.9219522913986857       2.924672711889253        1.7723866075270316       1.7761076134704605       1.7594441370124883       1.763173105755743        0.5598583286129247       0.5628255290574545       0.5522250405261749       0.5551552505922521       0                        0                        0                        0                        NaN                      NaN
0.17                     NaN                      NaN                      1.215197573111298        1.2132203809761648       1.6775118684144066       1.6765710193519339       1.6720185451140566       1.671089240093984        2.6273880493292436       2.6259823522126884       2.6190029652252997       2.6175999740633085       3.5006230734168855       3.499457239271225        3.496732901888069        3.4955590295899808       3.954116815919585        3.953927623789371        3.9545527755069627       3.9543592955719835       3.824462419052508        3.8258355412664797       3.8235255751238597       3.824912424185676        3.075710668982324        3.078932934536705        3.0673819773541204       3.0706347870959725       1.8485517788531878       1.8529992318144273       1.834104326592594        1.8385589673236395       0.5806230469240621       0.5840000500932172       0.5722510858642859       0.5755806443644852       0                        0                        0                        0                        NaN                      NaN
0.18                     NaN                      NaN                      1.3158859380301764       1.313868226737617        1.7815588261879036       1.7806092569335326       1.7757642758989047       1.7748270013275684       2.7673567240299035       2.7658631637169684       2.7578377529895586       2.756349321192656        3.7041908519933338       3.702823621326893        3.6993468210846405       3.697972079040629        4.198992321145546        4.1986420110902305       4.199292316026287        4.198936746120732        4.0436108576249294       4.045195648675651        4.042086093614646        4.043690688206064        3.2110112274577873       3.214898351266735        3.2008491567621578       3.2047752063408383       1.8974597009746872       1.9026065946618653       1.881342764123702        1.8864913769122864       0.5862849257813582       0.5899465405703131       0.5774638101720874       0.5810689459015446       0                        0                        0                        0                        NaN                      NaN
0.19                     NaN                      NaN                      1.421846238344607        1.4198089672177177       1.8858363519482702       1.8848548583837048       1.8798380504287047       1.8788699658276564       2.9025432211469404       2.9009165385664164       2.891843568135886        2.8902247945629647       3.9060698005857506       3.9044849338129817       3.900081329011534        3.8984884456543045       4.448012420441921        4.4475838702922355       4.448141758071727        4.447706323887132        4.26428515749035         4.266219066103952        4.262005244256442        4.2639662050994955       3.3362558029799025       3.3408378920688158       3.32385222548828         3.32847966517181         1.929884418024451        1.9356201319960873       1.9120326379927883       1.9177621914983978       0.5834265462972605       0.5872835629416654       0.5743470921588321       0.578140723673557        0                        0                        0                        0                        NaN                      NaN
0.2                      NaN                      NaN                      1.5328923839203366       1.5308373273469926       1.9965352935621696       1.9954901387839048       1.9903445892738136       1.9893145385472548       3.0416534140317855       3.039848547331056        3.0298573205299526       3.0280627848694017       4.104644296430778        4.102879362418213        4.097580177974698        4.0958046465743285       4.687012822321099        4.68665848579888         4.687012013667966        4.686648859212433        4.473212488893421        4.475607022194255        4.470130518625886        4.472558899254108        3.4529653134271783       3.458178916249613        3.438262970365396        3.443525090141811        1.9584313995216676       1.9646160062729698       1.9389089457540731       1.9450792100614507       0.5797072184547915       0.5836925262277838       0.5704310765079595       0.5743478448807079       0                        0                        0                        0                        NaN                      NaN
0.21                     NaN                      NaN                      1.6461296935380991       1.6440374796329655       2.117053410347868        2.1158619609470897       2.110578001313139        2.1094039403587894       3.1917255198846233       3.189708280507901        3.1790143337226207       3.1770075849103834       4.298916330303549        4.297065871597247        4.291112717401626        4.289246840857412        4.9048630295269495       4.90475073677454         4.904836549873992        4.904713868298439        4.660166280940585        4.663089608330822        4.656370842474835        4.659333136648573        3.5626828372868475       3.568438911544707        3.545991767655332        3.5517960874990546       1.993236770217888        1.9997365288436244       1.9722149522778594       1.9786925143280036       0.5811459555029483       0.5852032366803129       0.5716274068175802       0.5756122570361055       0                        0                        0                        0                        NaN                      NaN
0.22                     NaN                      NaN                      1.7576151838920642       1.755450780594259        2.2467059010563917       2.245302370343459        2.2397706401414985       2.2383873704836845       3.355317405697653        3.3530813819848064       3.34187914818279         3.3396511942201066       4.489198385512661        4.48737874644887         4.481126889295734        4.479285052409669        5.097340033262638        5.097617838433781        5.097413058356619        5.097679993120658        4.821166499118779        4.824638455781482        4.816828788208063        4.8203425278097525       3.6666851807586203       3.6728758081300987       3.6485276627648044       3.6547635280822037       2.0387270723627458       2.045439063298593        2.0164095614240187       2.0230932009383156       0.5901093959950947       0.5942258716987188       0.5802444362716052       0.5842852269820342       0                        0                        0                        0                        NaN                      NaN
0.23                     NaN                      NaN                      1.8643263895124753       1.8620497475032038       2.3816024342908104       2.379940362414592        2.373992007806891        2.372353637968092        3.530109368009709        3.527678968653915        3.516054578704525        3.513626406145927        4.676509321277908        4.674855623040904        4.6685889714851685       4.66690614085876         5.267679019399915        5.26843943086855         5.2679407471419255       5.26869099540934         4.958893053821104        4.9629014790493375       4.954166247167031        4.958217272336619        3.765135993615827        3.771678445347418        3.746012629254549        3.752595997557315        2.093343658308468        2.1002187452456247       2.069909299327566        2.0767514745465836       0.6056718902376023       0.6098556363888017       0.5953457897961657       0.5994504870044919       0                        0                        0                        0                        NaN                      NaN
0.24                     NaN                      NaN                      1.9658473102952745       1.9634289018014517       2.5169631483247388       2.5150564351630798       2.508495517813686        2.506615280437265        3.7100329085780013       3.707489570888516        3.6953712424362797       3.6928230995557496       4.861801913715104        4.860389869547492        4.854255454695929        4.852808422539782        5.42416989856532         5.425434960170109        5.42464590696207         5.42590247691377         5.080584336214259        5.085095123890483        5.075526700171015        5.080080218820129        3.8574127223194683       3.864281214993108        3.837622240931641        3.844527315746733        2.151565152292675        2.158593236903883        2.1271431438183335       2.1341341145900508       0.6248109378838271       0.6290664606987569       0.613943208079384        0.6181161568329767       0                        0                        0                        0                        NaN                      NaN
0.25                     NaN                      NaN                      2.064132769553403        2.0615666420991334       2.6487967173588456       2.646713203294123        2.6393978814147387       2.6373434505597824       3.887730185747519        3.88512100291982         3.8723885210259783       3.8697679329401327       5.045395669611186        5.04425601807449         5.038222986442869        5.037042823181833        5.57636359077799         5.578139997714339        5.577023516307844        5.578793540008542        5.195062744125799        5.2000586400269855       5.189618919970286        5.194657478192594        3.9430333815685046       3.9502206448321218       3.922612248123017        3.929832035158279        2.2067905569760744       2.213983049396354        2.181450684541096        2.1886017968612093       0.6437384136215053       0.6480632666085374       0.6323187113682314       0.6365572087059861       0                        0                        0                        0                        NaN                      NaN