% Model:              Untitled.mph
% Version:            COMSOL 6.0.0.405
% Date:               Jul 2 2023, 16:45
% Table:              Table 11 - Point Evaluation 1
% Time (s)               Displacement field, X component (mm), Point: 1Displacement field, X component (mm), Point: 2Displacement field, X component (mm), Point: 3Displacement field, X component (mm), Point: 4Displacement field, X component (mm), Point: 5Displacement field, X component (mm), Point: 6Displacement field, X component (mm), Point: 7Displacement field, X component (mm), Point: 8Displacement field, X component (mm), Point: 9Displacement field, X component (mm), Point: 10Displacement field, X component (mm), Point: 11Displacement field, X component (mm), Point: 12Displacement field, X component (mm), Point: 13Displacement field, X component (mm), Point: 14Displacement field, X component (mm), Point: 15Displacement field, X component (mm), Point: 16Displacement field, X component (mm), Point: 17Displacement field, X component (mm), Point: 18Displacement field, X component (mm), Point: 19Displacement field, X component (mm), Point: 20Displacement field, X component (mm), Point: 21Displacement field, X component (mm), Point: 22Displacement field, X component (mm), Point: 23Displacement field, X component (mm), Point: 24Displacement field, X component (mm), Point: 25Displacement field, X component (mm), Point: 26Displacement field, X component (mm), Point: 27Displacement field, X component (mm), Point: 28Displacement field, X component (mm), Point: 29Displacement field, X component (mm), Point: 30Displacement field, X component (mm), Point: 31Displacement field, X component (mm), Point: 32Displacement field, X component (mm), Point: 33Displacement field, X component (mm), Point: 34Displacement field, X component (mm), Point: 35Displacement field, X component (mm), Point: 36Displacement field, X component (mm), Point: 37Displacement field, X component (mm), Point: 38Displacement field, X component (mm), Point: 39Displacement field, X component (mm), Point: 40Displacement field, X component (mm), Point: 41Displacement field, X component (mm), Point: 42
0                        NaN                      NaN                      0.07372572202416666      0.08044112530637017      6.0333089604917676E-5    6.0333089605005226E-5    6.878632765803174E-4     6.878632765802999E-4     1.7466841737070546E-5    1.7466841737101E-5       7.666465337288882E-5     7.666465337287118E-5     1.1684471805932199E-6    1.1684471805890241E-6    5.2844439421987505E-6    5.2844439422297985E-6    7.030273970157505E-8     7.030273969612865E-8     3.3228864129779874E-7    3.322886413084388E-7     4.111859051000977E-9     4.111859075738544E-9     1.9957768735194103E-8    1.995776873055579E-8     2.344542278344835E-10    2.3445422311638655E-10   1.161886736495896E-9     1.1618867265437653E-9    1.3106771359670487E-11   1.3106758710712968E-11   6.612720932852283E-11    6.612721892396566E-11    7.16577675960523E-13     7.165658512430864E-13    3.6981983669282815E-12   3.698772460481906E-12    0                        0                        0                        0                        NaN                      NaN
0.01                     NaN                      NaN                      7.409795903279781        7.443241307508761        3.461274271004986        3.4611712458784782       3.2031066587466466       3.2029915774768605       -0.6482270130016         -0.6484352018442389      -0.6684451479243474      -0.6686532820768252      -0.4300220229288267      -0.43015349227372085     -0.43838182652957436     -0.43851514294252314     0.2760152008809023       0.2759133937351049       0.2826125461866452       0.2825116889823244       0.14004889128178352      0.13986075673411047      0.14860962023814528      0.14842210258046393      0.037707949821574833     0.037716085146372424     0.04772234916178993      0.047729674466908685     0.045045211040595584     0.04522095391259314      0.056199740507254715     0.05637496668596552      0.04249283845076362      0.04151755341789532      0.054332022877760254     0.05335730861367783      0                        0                        0                        0                        NaN                      NaN
0.02                     NaN                      NaN                      18.18801734268789        18.221850951490854       13.220948234697717       13.220751777727779       12.674580618349054       12.674405789458916       4.903428610582584        4.903643056143226        4.448483623323205        4.448761287340498        -0.6146528852770216      -0.6141244179426121      -0.6993573248614813      -0.6988324657073041      -1.4451215771569765      -1.444838974767666       -1.4621223256844011      -1.46183666448112        -0.3024020072317054      -0.30220361633728937     -0.32288748010432927     -0.3226884584547393      0.17532700014611258      0.17547919401335788      0.16301369027073329      0.16316769837835907      -0.0015453266672964924   -0.0012131112532088784   -0.015046223113839432    -0.014709724141428064    -0.07338102456355805     -0.0724446227524531      -0.08674933234663126     -0.0858096581342204      0                        0                        0                        0                        NaN                      NaN
0.03                     NaN                      NaN                      28.83184637819124        28.858378427303975       24.365492512312485       24.36619544220973        23.922084265243065       23.922832480314693       16.405572389028016       16.406338015989853       15.835859776041731       15.836590309713866       8.333158505578362        8.333551654353018        7.871882782679694        7.872225714799002        1.9156696033044756       1.9157012332186387       1.7139794879407677       1.7139969859473276       -1.1491771505347812      -1.1491064454964508      -1.1755334818296967      -1.1754552147380075      -1.1311095018012096      -1.1305361326396124      -1.1483192540642853      -1.1477536885629913      -0.2002975106338368      -0.19925102331453554     -0.21537537770521092     -0.21433317266648558     0.11941020481543467      0.12061358699604696      0.10891875354886163      0.11012357497203269      0                        0                        0                        0                        NaN                      NaN
0.04                     NaN                      NaN                      40.49342739307464        40.517253746120424       36.11976359796501        36.11997341453197        35.70035642395027        35.70058213531777        28.417582856463415       28.417854086892365       27.871675927967505       27.871941184853295       20.271734280755783       20.27193222416271        19.722713163746114       19.7228998949072         12.327705198943553       12.327909913066486       11.849759711272341       11.849980172625903       5.36272841262249         5.363229096039199        5.056577925544794        5.0571138167811895       0.5636737361423627       0.5645579225207104       0.45575232788236747      0.45663829529103234      -1.30384253050184        -1.303176424482264       -1.3228272266771024      -1.3221729299917968      -0.860870764799789       -0.8605237696094714      -0.8852045170681454      -0.8848786306266844      0                        0                        0                        0                        NaN                      NaN
0.05                     NaN                      NaN                      52.590419898050314       52.616960711716025       48.2418039017555         48.2413365615213         47.82898195573324        47.82848403073008        40.61819616333721        40.6177285128116         40.09843137665197        40.098015713694394       32.683981593709376       32.68416049690069        32.163306599031635       32.16360105814575        24.753453260890627       24.754447858125147       24.232912709523678       24.233981221217558       16.884392529615063       16.885498623506262       16.396690819675857       16.3977356728307         9.61508673315447         9.615252432660085        9.26003436056278         9.260080749104365        4.0623614447868075       4.061673179596413        3.9002750921727394       3.8995957746513135       0.9703323174919574       0.9707336840817197       0.9253807761687127       0.9258456841035524       0                        0                        0                        0                        NaN                      NaN
0.06                     NaN                      NaN                      64.57607838487861        64.5855444921495         60.33361544097376        60.33267625026812        59.940132460228654       59.93912103602104        53.01926683389047        53.01808260931829        52.49572404659345        52.49451076757408        45.08840996706534        45.08721505859771        44.53674206306696        44.53550498161222        37.13413713877002        37.132885092555014       36.59930554393251        36.59800168454422        29.37296210653139        29.37182204449911        28.858687041482657       28.857520052342586       21.713917938660487       21.71312926136757        21.193034747068218       21.19218610819039        13.919706578918456       13.91823535302397        13.370788641589208       13.368934554164754       5.980807318949797        5.97493663168017         5.452735376427094        5.446056575075076        0                        0                        0                        0                        NaN                      NaN
0.07                     NaN                      NaN                      67.60931014323182        67.5725015785601         64.15916622005851        64.15717863123906        63.876156079172155       63.87402579535169        58.900485982476944       58.89627860056603        58.54863233255286        58.544257255714705       52.765505141063976       52.75884292006284        52.32360258657323        52.3167092568052         45.63325611202416        45.62341588775902        45.078693107960056       45.068453556541265       37.49292221209189        37.47861552324551        36.8170887324931         36.80212301068488        28.472382454830623       28.452347013618414       27.68584927291119        27.66493957312798        18.775440922312583       18.74923955126307        17.90268321873096        17.875571760248615       8.636753238721173        8.605474045756397        7.734339187808058        7.703010147165885        0                        0                        0                        0                        NaN                      NaN
0.08                     NaN                      NaN                      64.05741021270988        64.048932509487          60.49735290285714        60.493865217894516       60.225220938111185       60.22142076326267        54.93972625371949        54.932115845310335       54.60450562400492        54.59647019526899        48.73556757910725        48.72305445356664        48.33532741929878        48.3222719262749         41.825524405804984       41.807728641255736       41.34424581351333        41.3258465004358         34.16307219258729        34.14044247257243        33.590790913826865       33.56761039769647        25.784425703966754       25.758242916250424       25.12186303938618        25.09530869988424        16.796710708990467       16.768805039499135       16.057777172709052       16.0297929303687         7.4097407107723265       7.382629929474286        6.666671501888769        6.640284931397659        0                        0                        0                        0                        NaN                      NaN
0.09                     NaN                      NaN                      59.3327818828098         59.35664889758836        55.15973097594759        55.15128108697696        54.788241554817695       54.778959329782786       48.03415585984871        48.01899755592347        47.587446998370815       47.57160770719077        40.755090827201016       40.73512189009523        40.320339625188126       40.29993756274382        33.56354241472644        33.54105273586638        33.13245069108687        33.10982962182744        26.34893195303755        26.326773723770955       25.907754750466673       25.885833852731416       19.01170173340027        18.993301055010548       18.552257282329244       18.53453820707427        11.543695614770806       11.532380065716252       11.079270784571687       11.068920314418262       4.306628221496735        4.302869023852816        3.9494654937784026       3.946175239201876        0                        0                        0                        0                        NaN                      NaN
0.1                      NaN                      NaN                      55.79494728711389        55.823681272201455       51.08799672360827        51.077464118725196       50.587577807852895       50.57590543733804        42.65174675947703        42.634240880407454       42.01668670010923        41.99847967033815        34.04162785210546        34.02112381586116        33.468448301430676       33.44786581481508        26.06360609689561        26.044587522269495       25.591125833578076       25.572597714452158       18.877163579673738       18.86432501142107        18.493809528300435       18.48188125460163        12.467389264930146       12.464486124901912       12.162141125528162       12.160193512136674       6.840992314312342        6.847150870061144        6.609861563277194        6.6165551828652385       2.304486262501704        2.312364121986339        2.1764741257001488       2.184011652660157        0                        0                        0                        0                        NaN                      NaN
0.11                     NaN                      NaN                      51.5116708977268         51.54148784328114        46.76983468114113        46.76350724547013        46.256758071439          46.24977259270865        38.16016889008052        38.15037085027982        37.485947189838505       37.47593345792969        29.244324719909354       29.23478149372701        28.62938460327149        28.62020215936026        21.035326536699362       21.029888944171997       20.558850844402507       20.554126648695018       14.065946743572216       14.067030046961818       13.745633946587017       13.747364458306741       8.58762263600991         8.59454076892212         8.393755372406197        8.40098667338426         4.500815366307749        4.509482852278054        4.386893669253124        4.395496227463811        1.4986898596594815       1.5044832044713157       1.4343141682333793       1.4399335447552688       0                        0                        0                        0                        NaN                      NaN
0.12                     NaN                      NaN                      48.66268818401053        48.69539268761766        43.86590415903383        43.86758664393753        43.33838210231255        43.34031012552691        35.15553615758699        35.15925620575116        34.48354970249986        34.4876510752678         26.34525874717778        26.351772913098344       25.768318497054956       25.775260427259788       18.471540856890453       18.481035087072048       18.050358716326084       18.060141173707684       11.98488904663395        11.996068568103377       11.71904392355759        11.730263801642787       7.049678367275693        7.0601324766086675       6.900323175717361        6.910649942275657        3.4965890125434775       3.504494685587921        3.416416093989973        3.4241871134298414       1.056866494681179        1.0616393543659126       1.0202242601222749       1.0248834085964826       0                        0                        0                        0                        NaN                      NaN
0.13                     NaN                      NaN                      48.25736306288276        48.29136952318548        43.36336268307702        43.372529690788795       42.81104771930814        42.82130316810211        34.47547885165566        34.49119344766994        33.78628272055542        33.80279472438893        25.649687965567587       25.669348077965477       25.090640018701826       25.110606593815117       17.99156840185806        18.011974271648207       17.602967357400686       17.623245270875042       11.77698481910426        11.794872802456718       11.530194218328546       11.547758834056369       6.970075736293176        6.983679155678151        6.8239793364272225       6.83729257637372         3.417888291721655        3.427225090843877        3.3381852171942015       3.347331748297183        1.0029281450075693       1.0081312884688214       0.9688211976279784       0.9738891247628966       0                        0                        0                        0                        NaN                      NaN
0.14                     NaN                      NaN                      49.98844783174578        50.02200365387608        45.10175903770071        45.11433383317735        44.55176423535423        44.56579796339713        36.22699780826061        36.248110869626586       35.53614027439198        35.55822589101438        27.36872793003152        27.394330168043034       26.80012574575207        26.826021629506826       19.61938258184461        19.64531836872379        19.21637064853174        19.242105072618685       13.249941779033003       13.272723970504257       12.9848063477586         13.00719667279278        8.191772476861496        8.209603299657322        8.022929105047021        8.04038970495982         4.249708576222131        4.262242338764922        4.145072504807282        4.157315077268757        1.3307381763204031       1.3375889739846354       1.2788377286043815       1.285448921340394        0                        0                        0                        0                        NaN                      NaN
0.15                     NaN                      NaN                      53.42286778281264        53.45425243710874        48.655245021206724       48.666071633540355       48.13769111466943        48.14976442336806        40.041947302337846       40.06069499403751        39.38325643028128        39.402953753633135       31.303221994748082       31.32702715766019        30.727807291269425       30.752081049002967       23.37561277085786        23.40148651420804        22.93015206799368        22.956067360727324       16.527455355500717       16.55241691600938        16.202215252449008       16.226940441331113       10.75296162331848        10.774557640764328       10.518605926561863       10.539831401615459       5.90398403148236         5.920386357500078        5.735388413658251        5.751360073982252        1.9729095226637263       1.982016745303779        1.8754795659239505       1.8841193836968828       0                        0                        0                        0                        NaN                      NaN
0.16                     NaN                      NaN                      57.6721889179881         57.69853698407218        53.161395869324615       53.167442142148          52.71027346483161        52.71701745767992        45.15912795051544        45.17060938836998        44.580655574091445       44.592844723927996       36.85839051564814        36.87468561351107        36.30720180469202        36.32406794874377        28.913833326901216       28.93381130449462        28.425975797337422       28.446286183963146       21.515835506288457       21.53755259239298        21.09823549540419        21.119987828595605       14.721816629905529       14.742677136082351       14.36879760774604        14.389395398345597       8.523876657668103        8.540829577684491        8.230726815753435        8.24713869874263         3.0667477068559665       3.076065477391299        2.8678948407742064       2.8764470961157396       0                        0                        0                        0                        NaN                      NaN
0.17                     NaN                      NaN                      61.25067231864396        61.26693941992207        57.14961795665265        57.15119610475115        56.79056645571948        56.79233081151355        50.164043069546075       50.1676734902947         49.704384055955          49.70829262164824        42.68483902418757        42.69100778312681        42.19545971049096        42.201947077400916       35.03051834790745        35.03918902465484        34.527547456178034       34.53647983170087        27.30857697099329        27.318854253841373       26.80347452376974        26.81383425238154        19.610049466063543       19.62011376037818        19.11318867531155        19.12305509083684        12.016253404969033       12.023592499370737       11.53954018602719        11.546350033098403       4.736346350702118        4.737852055948394        4.346495275474421        4.347219064429693        0                        0                        0                        0                        NaN                      NaN
0.18                     NaN                      NaN                      62.87682209082828        62.88087336909933        59.12707538695441        59.12597007754549        58.831306483000255       58.83010135177877        53.054034186092686       53.05173758730978        52.68355249117349        52.68113899140477        46.39523664442412        46.3917284211926         45.96983200252902        45.96619578204777        39.214889552996624       39.21005360403593        38.72949537448863        38.72449739456968        31.523681229816905       31.517254435035344       30.978491528811315       30.97184272039659        23.384298864009747       23.375799139756516       22.78700294033931        22.778189836328835       14.906828434591656       14.895667324722519       14.273690452246475       14.262136259220966       6.291139756404092        6.2772589262039356       5.697254795315507        5.683268977057529        0                        0                        0                        0                        NaN                      NaN
0.19                     NaN                      NaN                      62.58095532744456        62.58419463790558        58.89272941660652        58.88927526782815        58.60820145433159        58.60443470289487        52.99691225231728        52.9897635361508         52.647626412592594       52.64011202203211        46.57017889503133        46.55919047677446        46.17018123857874        46.158794282850714       39.615545579541866       39.60080998068333        39.153265163666184       39.138128951021784       32.082973974634584       32.06496703061594        31.550333677866313       31.531982322888396       23.98398452355187        23.96363555688198        23.38101123178075        23.360451099789632       15.395025265557225       15.373682451710964       14.734643608091677       14.713312344854323       6.5408269287963705       6.5206078601051605       5.908789679055671        5.889179204065779        0                        0                        0                        0                        NaN                      NaN
0.2                      NaN                      NaN                      61.39986559793806        61.412426570972386       57.53398390400824        57.528325441559296       57.22220426567847        57.216020705390925       51.1758486943668         51.16497392607952        50.79344348621616        50.78205161013709        44.40236406510924        44.386995415364275       43.987290206551634       43.97147883560485        37.31363211355384        37.2948736173031         36.85954132985119        36.84047692596623        29.86114243013501        29.840598371201743       29.36147357638787        29.340838979002577       22.03100853537218        22.0107382494566         21.484789687582783       21.46471877554391        13.86758419145774        13.849881671332975       13.287382611317605       13.27018948118292        5.632499492985927        5.619218437012096        5.116890398397774        5.104251870510258        0                        0                        0                        0                        NaN                      NaN
0.21                     NaN                      NaN                      60.2807527921994         60.300780113052745       56.13536466298365        56.1290868011777         55.76854523855383        55.76165645567689        49.05757493027945        49.04628743268792        48.60040514346265        48.58862319859318        41.643111607142686       41.628480458270424       41.17729027462136        41.1623804472504         34.19578675091064        34.17980899360312        33.72754809652759        33.71155174697679        26.72052354856001        26.705445833669348       26.248006883159047       26.233183792853687       19.21050778641468        19.198479175989913       18.73478035109841        18.723234571568934       11.704720857207503       11.697177442042403       11.239086903103622       11.232096712997903       4.490885961733282        4.487275146817306        4.123247490532479        4.119830874108474        0                        0                        0                        0                        NaN                      NaN
0.22                     NaN                      NaN                      59.17733609648296        59.20075489418661        54.82929203907367        54.82530182822208        54.4167500879506         54.412365250005614       47.223884110093685       47.21716354628652        46.69770394890885        46.69074905566266        39.27606698039917        39.26832673792805        38.75705149843607        38.74930776979257        31.49041810266233        31.483439637802846       31.002418555127978       30.99565272268413        23.98326663850258        23.978655144999703       23.532535672288795       23.528277262975937       16.79446725331808        16.793123275355462       16.38079428384771        16.37982948644956        9.9463122882283          9.948135712698706        9.576453537964442        9.578527539620781        3.6884986129423263       3.690922653192683        3.4221265612153493       3.4243324148505425       0                        0                        0                        0                        NaN                      NaN
0.23                     NaN                      NaN                      58.16370262536301        58.18918206925797        53.72318212363354        53.723728050508356       53.28880125991543        53.28942631143716        45.88603240555154        45.88741446114178        45.33033884253467        45.33187154539497        37.73071804057247        37.73345368699698        37.19287115526109        37.19582368815792        29.845545723032846       29.850076940868945       29.35763521034981        29.362400808929202       22.402535192873845       22.408876310493774       21.97329919311771        21.979820781335242       15.467330304838914       15.474874867156817       15.094663742534676       15.102272536800918       9.042136260557559        9.04961287664686         8.723069448430799        8.730439877621473        3.283967461847148        3.288934187278099        3.061695252209235        3.066284860976962        0                        0                        0                        0                        NaN                      NaN
0.24                     NaN                      NaN                      57.7951732039837         57.82176827550847        53.32016054980817        53.325076002663344       52.87804801441664        52.88350403628489        45.41301273470167        45.421969596550255       44.85260898273505        44.86204587694213        37.251491231185135       37.2635506021212         36.72003082619164        36.73241722331444        29.434815745491818       29.44880819490067        28.95982052096882        28.973954451046726       22.093781109220274       22.108269818039158       21.67738961000821        21.691839338323888       15.247351956833676       15.26085805734353        14.883507049302338       14.896830186297837       8.877753707278663        8.888921161491222        8.56488987798337         8.575749794351166        3.1822224683103766       3.18889510393632         2.96923300541883         2.9753831725432445       0                        0                        0                        0                        NaN                      NaN
0.25                     NaN                      NaN                      58.25525694099739        58.28124841603479        53.81152574940359        53.81861848104691        53.3774999034039         53.3853537343826         45.99296130571658        46.00568608362611        45.44577514114101        45.459128844315735       37.93155339856636        37.94819974591653        37.41156463764356        37.428580268967494       30.18843441159247        30.20704698210622        29.717913588857243       29.736624633786978       22.849786362101973       22.868331665815052       22.42684260011356        22.445258568281563       15.901739624476708       15.91840655066755        15.52029272600119        15.53666049762254        9.331488274148247        9.344684545752584        8.99431647748336         9.007062455158154        3.375630164643641        3.382949268939314        3.1409900190797297       3.1476417706132542       0                        0                        0                        0                        NaN                      NaN