% Model:              Untitled.mph
% Version:            COMSOL 6.0.0.405
% Date:               Jul 2 2023, 21:03
% Table:              Table 22 - Point Evaluation 2
% Time (s)               Total traction, exterior boundaries, x component (N/m^2), Point: 1Total traction, exterior boundaries, x component (N/m^2), Point: 2Total traction, exterior boundaries, x component (N/m^2), Point: 3Total traction, exterior boundaries, x component (N/m^2), Point: 4Total traction, exterior boundaries, x component (N/m^2), Point: 5Total traction, exterior boundaries, x component (N/m^2), Point: 6Total traction, exterior boundaries, x component (N/m^2), Point: 7Total traction, exterior boundaries, x component (N/m^2), Point: 8Total traction, exterior boundaries, x component (N/m^2), Point: 9Total traction, exterior boundaries, x component (N/m^2), Point: 10Total traction, exterior boundaries, x component (N/m^2), Point: 11Total traction, exterior boundaries, x component (N/m^2), Point: 12Total traction, exterior boundaries, x component (N/m^2), Point: 13Total traction, exterior boundaries, x component (N/m^2), Point: 14Total traction, exterior boundaries, x component (N/m^2), Point: 15Total traction, exterior boundaries, x component (N/m^2), Point: 16Total traction, exterior boundaries, x component (N/m^2), Point: 17Total traction, exterior boundaries, x component (N/m^2), Point: 18Total traction, exterior boundaries, x component (N/m^2), Point: 19Total traction, exterior boundaries, x component (N/m^2), Point: 20Total traction, exterior boundaries, x component (N/m^2), Point: 21Total traction, exterior boundaries, x component (N/m^2), Point: 22Total traction, exterior boundaries, x component (N/m^2), Point: 23Total traction, exterior boundaries, x component (N/m^2), Point: 24Total traction, exterior boundaries, x component (N/m^2), Point: 25Total traction, exterior boundaries, x component (N/m^2), Point: 26Total traction, exterior boundaries, x component (N/m^2), Point: 27Total traction, exterior boundaries, x component (N/m^2), Point: 28Total traction, exterior boundaries, x component (N/m^2), Point: 29Total traction, exterior boundaries, x component (N/m^2), Point: 30Total traction, exterior boundaries, x component (N/m^2), Point: 31Total traction, exterior boundaries, x component (N/m^2), Point: 32Total traction, exterior boundaries, x component (N/m^2), Point: 33Total traction, exterior boundaries, x component (N/m^2), Point: 34Total traction, exterior boundaries, x component (N/m^2), Point: 35Total traction, exterior boundaries, x component (N/m^2), Point: 36Total traction, exterior boundaries, x component (N/m^2), Point: 37Total traction, exterior boundaries, x component (N/m^2), Point: 38Total traction, exterior boundaries, x component (N/m^2), Point: 39Total traction, exterior boundaries, x component (N/m^2), Point: 40Total traction, exterior boundaries, x component (N/m^2), Point: 41Total traction, exterior boundaries, x component (N/m^2), Point: 42
0                        0                        0                        0                        0                        0                        0                        0                        0                        0                        0                        0                        0                        0                        0                        0                        0                        0                        0                        0                        0                        0                        0                        0                        0                        0                        0                        0                        0                        0                        0                        0                        0                        0                        0                        0                        0                        0                        0                        0                        0                        0                        0
0.01                     1554.730366799568        1554.7306040530727       -1489.4925854247972      1472.075872898603        -1481.9327956029088      -1481.9113610867894      1468.6149183540701       1468.6273200190294       -1475.4088504308775      -1475.3779397082417      1464.007887682314        1464.0321153006569       -1469.6283584875791      -1469.5913841604247      1458.2648389449214       1458.2956080807558       -1463.8273287781049      -1463.7911427274998      1452.4089331927412       1452.4398035936983       -1457.9749113255652      -1457.9456540335848      1446.582785975617        1446.6077552822799       -1451.8763959480082      -1451.8556372515031      1440.8715799441854       1440.8883205588718       -1445.8065866307843      -1445.785687218593       1435.1799424334342       1435.1961726981465       -1445.6906727182843      -1445.674219624073       1425.5254479306695       1425.5376205163157       -718.0223644325815       -718.0354535562745       711.7082772366853        711.6031075147689        -1.6888938545448913E-4   -1.654855808285381E-4
0.02                     112.97123054880518       112.97252944180029       -117.41778070428057      94.0947219468257         -113.47436472760594      -113.46525526519578      98.97242768714167        98.98472364382792        -107.1002673636728       -107.08291560873958      105.1865710893547        105.20276154423597       -105.66615501419085      -105.64726521782681      105.78046045375301       105.79698309840674       -106.45455692826306      -106.4416617147184       104.24207827682844       104.25131765247488       -105.1654271685527       -105.16738342253473      104.84970062402931       104.84602905028794       -102.8420353231686       -102.8462693469215       106.06910673260926       106.06310487530833       -107.94236950421418      -107.93104313114912      100.03961704262227       100.04906213518507       -113.85165956917726      -113.85292940082965      94.41253396345115        94.42477250579643        -53.05411453899439       -53.12698605769294       49.88919243241513        49.78850793240622        -1.5996217843138125E-4   -1.6519455616509392E-4
0.03                     0.36545566578565686      0.36632712377803667      -10.249165671978835      -13.263840778003782      -8.923849521158322       -8.949674634882145       -10.410476120849992      -10.420943150947906      -3.2608846462444347      -3.287264509507051       -3.9694871404419025      -3.9866361324018693      0.7302903916873874       0.7055500933780721       0.17831627861603544      0.16010828155829154      1.3819781385233167       1.3622138546381874       1.0314259573770581       1.013551568911926        2.4738793686758367       2.47539794067941         2.186579471945404        2.187705846834832        -0.558915702876098       -0.5308849408540097      -1.055419151227771       -1.0252505590696566      -5.931440805129171       -5.899498182927957       -6.444591547271307       -6.4103982466836955      -5.317116414129805       -5.307940622479192       -5.315380732797976       -5.297014171766966       -0.3493102585676557      -0.3971348972052804      -1.103889996533599       -1.1269415959330198      -1.5991418801768073E-4   -1.6961725612118624E-4
0.04                     0.34142770552114693      0.3420826742407747       -7.650467168344434       -10.086342150556746      -8.242260417286438       -8.260935412458995       -10.058440579739024      -10.052270006987516      -6.644836637388108       -6.648944706590804       -7.630364331290885       -7.623402388790382       -0.36959395576790505     -0.3788394937986561      -0.6910520446574231      -0.6948683925172976      5.113151550277989        5.105006582303682        4.7365169388141695       4.730794775570221        2.6031854967276504       2.615452153198069        1.9881609677903713       1.9979001350335897       -3.665933100329731       -3.6524287122962886      -4.338332975099265       -4.330739234623495       -5.492277071130192       -5.485301051853835       -5.82299912682524        -5.812955192223402       -3.3985531160347815      -3.39352868410369        -3.4189696902069207      -3.4046686475970986      -0.06841343774958311     -0.0808246064938068      -0.8553398025065369      -0.8511646645545858      -1.6408503517016657E-4   -1.7609492885607638E-4
0.05                     0.33953025904135303      0.3398818926932645       -5.912322260050109       -8.008930998703207       -7.591554174710524       -7.599532965026361       -9.370981865663342       -9.367704751056612       -7.407220967815969       -7.414946949823504       -8.580504406236603       -8.580759930268247       -0.5317254163759938      -0.5419016567125411      -0.9763659435309711      -0.9812939840726045      5.295466788004752        5.299353901911674        4.936094738297123        4.937686009921458        2.290931385163322        2.3045942110931095       1.595784919241141        1.6083168235766863       -3.961413581439288       -3.953256799746778       -4.552218905956547       -4.552024658631233       -5.399107418445806       -5.391134909041498       -5.54572793453669        -5.536874966323708       -3.1966950632582254      -3.1862244927747034      -3.117950788531682       -3.102918958183636       -0.0012273877953781877   -0.00913911052813511     -0.756953609458863       -0.748148005997946       -1.7931328664636776E-4   -2.0066938639130055E-4
0.06                     0.32706529140267265      0.327364791217963        -5.373775748915797       -7.2293823391521395      -6.328703419179335       -6.340407502097292       -7.75264046670045        -7.755653933139009       -5.328930497183589       -5.3395296584988445      -6.546182429783865       -6.548629372095656       -0.82753835710046        -0.8332170681801268      -1.5844524548758852      -1.5849880415993858      2.6925000559121646       2.7039628060397556       2.397293961211722        2.402562560807272        1.6653824360054208       1.6749858048016115       1.148440156172708        1.1598720191114826       -2.3468341189621498      -2.3367378689482985      -2.999988763936635       -3.000962786435304       -4.903930768845168       -4.8953528440367435      -5.052249946475273       -5.046750727660619       -3.7462660448530687      -3.732797820390556       -3.6133752166274444      -3.5994166972066557      0.01698648198817937      0.007251994263415157     -0.8253374551045792      -0.809477545379246       -1.7851688722971405E-4   -2.0310356351078317E-4
0.07                     0.24562421828901726      0.24593575288516042      -2.949119052803034       -3.761073193825926       -3.33643070409635        -3.3518556768534884      -4.080482139329391       -4.0911634879313095      -2.7773014460679533      -2.788332316367293       -3.817224308950315       -3.8213116176282407      -1.5502037269911302      -1.5511776499837393      -2.4125275750716972      -2.4103568617669278      -0.4058610926582955      -0.3912972363849951      -0.5573825484345281      -0.5503871791590054      0.2644195055945394       0.2700962546354258       -0.049879865057435246    -0.04111916600643359     -0.9964249073742671      -0.9861001228060712      -1.6403429292974048      -1.6443329989114077      -3.3038022420273343      -3.29789464686268        -3.476350795063934       -3.4786494818849363      -3.145013325798389       -3.127188206361118       -3.029492655546527       -3.0317942690965136      0.13828868102146125      0.10371190067827735      -0.8552836959434196      -0.833723559196507       -1.503820306811385E-4    -1.7743555904727243E-4
0.08                     0.11788532697500123      0.11821060076699277      1.2087172374015098       2.152023607160724        0.8256663020474662       0.8160492521726721       1.0353389101059458       1.0212973070927434       -0.6151305664754968      -0.6251377985299991      -1.1027655802042744      -1.1090002214447872      -2.5781351817899827      -2.57661836536783        -3.1351368515813975      -3.132555512655027       -3.481677219148433       -3.4664046619508735      -3.366947928279324       -3.357670932671523       -2.104663825832681       -2.0997274870558345      -2.0406529629744075      -2.030947409760498       -0.5950669181593345      -0.5878763374941773      -0.9584703666320358      -0.9621906956160691      -0.7640235206408832      -0.7633868451662644      -0.8335588933821759      -0.8364689947841686      -1.037081256893262       -1.0361898128118399      -0.9445962065683564      -0.9519908505419126      0.23931130158977804      0.20880652031623062      -0.7353876992283386      -0.7356329425770988      -1.2242039020221373E-4   -1.5585023329813257E-4
0.09                     0.009082549415508566     0.00937195645616247      4.699089039183347        7.209897146299753        4.286509253599476        4.2795356160495714       5.503256706863879        5.497039529051841        1.1625810890899024       1.1579009460091592       1.4441922350783287       1.441605228060598        -3.465746618315472       -3.462184001823095       -3.4765380297607846      -3.4718998328561383      -6.231621554972319       -6.216973395182183       -5.742456327995099       -5.731443131887943       -4.781268327320316       -4.77655746795606        -4.224530599401074       -4.215962328071284       -0.8329267132201525      -0.8289106924728705      -0.6515729623221924      -0.65470035629087        1.6406549367615852       1.636309260068633        1.8700386944092373       1.8640655436447746       1.195114838132359        1.1865618505528104       1.4773503714187797       1.469052698253599        0.41556214056498475      0.39087332532908775      -0.6804683543076177      -0.6778032307536901      -8.12305422740478E-5     -1.0789577076070145E-4
0.1                      -0.026493736969093594    -0.026214970173887624    5.536547712620683        8.456857992650164        5.564795627495615        5.562083585556153        7.221986094532555        7.220184069227464        2.3266980140867366       2.327199894263286        3.1163097881102297       3.1157335519515863       -3.659427739632969       -3.6573154040059768      -3.2440607974406923      -3.2416316121502016      -7.848437081879391       -7.838287347157591       -7.252310623019263       -7.246165190789021       -6.601869287986108       -6.590709265356352       -5.746829761250497       -5.739342658501199       -1.277611895250471       -1.2761538506199095      -0.5820205044473346      -0.5833877289185374      2.839615124386028        2.837594641112412        3.310671830169233        3.3091852122220287       2.3820562672516266       2.3694017095088267       2.736118586221747        2.728696281309232        0.5007389285667606       0.4789852674288978       -0.6061727495859577      -0.6080675353629058      -5.676863665729209E-5    -7.68976195626433E-5
0.11                     0.024936339500401382     0.02514846069260614      3.662082949526668        5.9562239053514165       4.266774097881722        4.270353293685409        5.778143712602727        5.779464040139258        2.324046233534916        2.328591285846964        3.150390197129033        3.1467361792083555       -3.118468287373065       -3.116500844862956       -2.584137679948574       -2.5830844149621326      -7.682290891034276       -7.680429232391932       -7.120508461170256       -7.117500182500766       -7.00769780582425        -7.010657392712423       -6.040707277284313       -6.033869945579722       -1.6883044922104102      -1.682975247712672       -0.9548149109143221      -0.9539556808170102      2.3992531652459954       2.4106841008697724       2.91199649439102         2.914915150486345        2.1135874664716505       2.1104644055842834       2.5489121432738426       2.539759270845245        0.44759718053642483      0.4221780428988922       -0.5219699073984008      -0.5244338060952639      -5.257077877041445E-5    -6.915665249671882E-5
0.12                     0.12508891525199195      0.12487037001000656      0.6437655936648362       1.7990387609609346       1.4598443035020816       1.4652308820618916       2.3909035529796787       2.3984262616794547       1.0829275804223275       1.0820775509247724       1.7059465825302071       1.715815515937222        -2.2761999906638404      -2.262140389515541       -2.0445992559769186      -2.0560497005673555      -5.872998733565607       -5.866966714333548       -5.623794286734228       -5.633333319872817       -5.9375453719343305      -5.9336611283129805      -5.303506217908823       -5.303708007398829       -2.380607306373034       -2.3668380658721584      -1.7296258102325164      -1.7268994473470636      0.7701660329089378       0.7853668991072953       1.1344152252610762       1.1412070815617303       0.8047902417229083       0.8148283354194535       1.181724086125773        1.1844968135793867       0.3092047984386307       0.28934623235827744      -0.4794243044818745      -0.4773294043280116      -5.8545228356589886E-5   -8.784426459054435E-5
0.13                     0.22401904681220436      0.22357237607165195      -1.8786034757601273      -2.01713366509708        -1.3415281062654303      -1.3355162013174806      -1.350085240833966       -1.3452431284503747      -0.7467054467545151      -0.7452154177826296      -0.718183138334175       -0.714951727201609       -1.6962623828613272      -1.6955122918660321      -1.683590165381915       -1.6864667213403384      -3.4958524312754933      -3.4949895850367585      -3.4791484255205387      -3.4864594398864015      -4.202888643281804       -4.197725871251033       -4.050472569121425       -4.052625952643044       -3.027713835947311       -3.015856835962151       -2.691731205757458       -2.6789980712960086      -1.480810463278043       -1.457308355352112       -1.2313079016394126      -1.2136237702182793      -0.861945736503628       -0.8399792942065323      -0.6067823859134708      -0.5925200170701677      0.1517054654994331       0.13286537475208696      -0.47137058296306533     -0.45703970928717286     -9.948820299522246E-5    -9.038147423611267E-5
0.14                     0.30336355792063846      0.30277364685516156      -3.4320659065698305      -4.382399078365252       -3.3745050076623633      -3.3627494544086405      -4.053719828838775       -4.05140584320461        -2.6004350575942086      -2.5833861866054546      -2.994818439381062       -2.9932901312541205      -1.5320322809821594      -1.538161897444992       -1.7071549638155528      -1.705642785593205       -1.4392224615088516      -1.441509741287573       -1.527281466415206       -1.5278108883102335      -2.5141717505275656      -2.5085717751175567      -2.6046485199600014      -2.6067254989843187      -3.649484000546951       -3.6400119093190755      -3.595934796898391       -3.5809207053544787      -3.6487595081745487      -3.624386162025397       -3.4937794296279385      -3.472057290776436       -2.4996953324067386      -2.4733014677398355      -2.322737532330746       -2.3056012235108385      0.02751781242042369      0.00518096866203902      -0.5325158011491067      -0.5003247661997537      -1.3585612207401066E-4   -1.2197339267314135E-4
0.15                     0.36213846339999295      0.36159815073638085      -4.16388941818957        -5.3119828533814255      -4.520807117431583       -4.51252528526702        -5.373124537346972       -5.371377047512631       -3.9311226202025593      -3.92074209243016        -4.43864782041744        -4.437993064887455       -1.7502606638403326      -1.7444183606555894      -1.9252317561484142      -1.9304955997516269      -0.24944038775236546     -0.25843955045888056     -0.24702458207624775     -0.2509052907072933      -1.351514379332266       -1.3459042954319176      -1.4602754266437614      -1.4553199592844295      -4.124004649112866       -4.107776960514395       -4.14325954636492        -4.12415474557482        -5.410793626256198       -5.3890155226116505      -5.128232615024645       -5.108954867733532       -4.065539860976785       -4.041788654834848       -3.718741684318958       -3.6910012723205146      0.09570671245250506      0.049884147213123106     -0.8314594154800198      -0.7850648717559285      -1.635225056228969E-4    -1.690489701070504E-4
0.16                     0.3894663238082898       0.3890260570121192       -4.2030237894230265      -5.25171804896433        -4.757961285707604       -4.751555265418874       -5.551940872907952       -5.550049632095787       -4.515310121850523       -4.509355078095085       -4.897346833577764       -4.8948740513061235      -2.1272262030659554      -2.1260087172320783      -2.1948748367102944      -2.196917839723077       0.06838339202208642      0.06765229775994586      0.09176207522052708      0.08771123987522043      -0.9108537041361375      -0.902610821041248       -0.9271236726298894      -0.9209718540322349      -4.252802440026          -4.232284317520801       -4.322263309397892       -4.302924964924696       -6.297176782401873       -6.279955089938084       -6.110323766648373       -6.093456790686179       -4.852251172520091       -4.861206624315431       -4.540729634304844       -4.554981618871435       0.1431878969111226       0.10205678479897479      -1.0081928099467872      -0.9928206539206573      -1.860576517699201E-4    -2.1009781475773488E-4
0.17                     0.3845441157498242       0.3844723702996369       -3.644375141331548       -4.436365114738695       -4.19365755623077        -4.188419871113791       -4.853805328975623       -4.854256197868535       -4.235218179043822       -4.230769544671926       -4.629024978934698       -4.628942343893361       -2.405481503183147       -2.404040535129203       -2.4084640396627988      -2.3960587241121223      -0.5105425756731371      -0.509240478983265       -0.41401569202287697     -0.4189837992343878      -1.2124188766911805      -1.1978387559956936      -1.166412336565593       -1.1568171380067596      -4.264721203266373       -4.239847493568634       -4.281808674238131       -4.267326993085426       -6.275983798978713       -6.268329911582577       -6.0715373838805835      -6.070680811635757       -4.794792082949474       -4.807963490497524       -4.447742604193466       -4.466683581657271       0.17210271468324725      0.13017928764209594      -1.0399799861338734      -1.030371770913464       -1.9709883745173818E-4   -2.3674183144543442E-4
0.18                     0.354674990003383        0.35487452786720025      -2.6944586111636006      -3.0189383732996125      -3.117191745880815       -3.1127799946146384      -3.4633476189305905      -3.46604336604347        -3.4346752499443722      -3.43188053012323        -3.6731617161269554      -3.6752060124850576      -2.6163193280230757      -2.6128432753045185      -2.6599936744402717      -2.6627577605008397      -1.6903951837853228      -1.6794807382607484      -1.5178779000233145      -1.514043484609342       -2.223128555385358       -2.199699699190477       -2.120462955631907       -2.104812866244509       -4.2330717672837865      -4.226044330737222       -4.137363507451852       -4.129393304274206       -5.431786569846539       -5.437016253381786       -5.091078897240994       -5.101622409207686       -3.989540206709103       -4.0041552088817305      -3.6925788077363366      -3.711173919172464       0.2570358237139739       0.20920052378096698      -1.0358840272193661      -1.0245333004566113      -1.9802528445432286E-4   -2.4843512964379735E-4
0.19                     0.31169821339513665      0.3119769771782254       -1.6581943142238234      -1.4430291618492912      -1.8782581247102532      -1.879846972165649       -1.798844241423939       -1.801562163700756       -2.3920206573874863      -2.3945471574634425      -2.371902651504478       -2.3762428036307854      -2.8151179928454946      -2.8110309628637573      -2.734721886159414       -2.735016779686055       -3.216434342744165       -3.19913686423667        -2.9305095995489525      -2.912653099928437       -3.686238754706046       -3.670811609421694       -3.4278664081004226      -3.4111338667652418      -4.164660489829908       -4.16557746003616        -3.930153831389217       -3.9336567393763637      -4.065326680187127       -4.07895758669021        -3.628961245739421       -3.6457478742149485      -2.7624881662805354      -2.776811803805778       -2.5551578201044713      -2.5751935844878058      0.33790038511618453      0.2921199061866713       -0.9931960539617415      -0.985837677068438       -1.8998022058441474E-4   -2.458229688759794E-4
0.2                      0.27373025617430136      0.27402550041468593      -0.9327899367687948      -0.3511702932640658      -0.8925940658125637      -0.9040403325562643      -0.4685446507143997      -0.4700710499409408      -1.4227445290178267      -1.4249185147741619      -1.1742484272849896      -1.1754282955141266      -2.9606332268735915      -2.949646697644081       -2.7661523994730155      -2.7593421483634164      -4.618430959189023       -4.595546723810573       -4.26631821099832        -4.23655254660156        -5.03563392154652        -5.030433296477595       -4.643284790570618       -4.627005237342274       -4.078634910429324       -4.085412119848663       -3.6474814569965006      -3.6552443252338986      -2.7170519227717405      -2.734038598714945       -2.1779715825611383      -2.1970973712900683      -1.6017283600672507      -1.614906781236462       -1.466373349761796       -1.4839276307268592      0.3779644905108258       0.335832218535569        -0.9329667639921715      -0.9266258182989792      -1.7638442517627035E-4   -2.3282749229222333E-4
0.21                     0.2570481292744945       0.2572885944434734       -0.8667946145563494      -0.1871244564229444      -0.5250148181112728      -0.5353784756942725      0.06132131134721415      0.05639884815549288      -0.9040338361981428      -0.9051679054202363      -0.5035053611402259      -0.5053373086843762      -3.0516505240693874      -3.037306427485401       -2.69945103070459        -2.6932980886043345      -5.480670761631115       -5.461052867487076       -5.122721537615791       -5.1000925959710965      -5.891714581813671       -5.888424763260467       -5.353718344800473       -5.346026677616392       -3.8990595546181206      -3.9120635901730783      -3.340352387596511       -3.3522769488009208      -1.7891221337384802      -1.8052389249514627      -1.2402203179729445      -1.2576611275255778      -0.8798888989144562      -0.8855343444632944      -0.7607496942486965      -0.7749683681906829      0.41535854702597685      0.3711279877108533       -0.9121980978730915      -0.9014799524652207      -1.6133080656585228E-4   -2.157469676124845E-4
0.22                     0.2640839967422939       0.26414785023817         -1.4433595452802355      -0.9109407868834929      -0.9011774668193621      -0.909938593804621       -0.3562510204421522      -0.35950029305644204     -0.9863196673594454      -0.9891066095092707      -0.5601400758516201      -0.5606344180059029      -3.041629019753924       -3.025720477346106       -2.774258634156419       -2.7518389219292425      -5.499898116918148       -5.4789258239414025      -5.232076451977784       -5.220426174671107       -5.929378336105245       -5.923314160545447       -5.377996089437784       -5.377759457062586       -3.7891083631318434      -3.801801879659152       -3.1345075488931817      -3.1457998451004148      -1.4778884782924422      -1.4903815484708587      -1.0048465964580733      -1.0237415649165047      -0.6831682826765899      -0.6878354852629401      -0.5599646637469917      -0.5718256168794618      0.4382015010425612       0.39473106419295634      -0.9247805503186736      -0.9123792501962372      -1.510647362790501E-4    -2.0117079938036689E-4
0.23                     0.2865600555348723       0.2864089374837549       -2.22844762297271        -2.12558618115298        -1.7145305911608606      -1.721824336425565       -1.5285963632909298      -1.5252181949601762      -1.5548058184019777      -1.553421117607217       -1.3905055846552279      -1.3770914686468116      -2.971576605450427       -2.9561264830768605      -2.872874932701442       -2.862281203905524       -4.94265616511485        -4.922338227403259       -4.701751709939233       -4.695842696996447       -5.295299224045143       -5.294597259111447       -4.850628235635705       -4.853317127251597       -3.6433540738725627      -3.644548734791861       -3.1247698711796614      -3.132889513298296       -1.777703853563484       -1.7831167870829576      -1.26081213069659        -1.278955765777535       -0.9151102028991182      -0.9189422938840786      -0.8178552689970442      -0.8277904470022664      0.40951810188264454      0.3689436402457366       -0.9281828211415354      -0.916818742273655       -1.5049467255913313E-4   -1.9393390912104808E-4
0.24                     0.3142350180011023       0.313936108042181        -2.915571778400783       -3.2912304689130023      -2.627017566655286       -2.616671650423895       -2.8838554037096413      -2.8791021246103288      -2.4354835458773207      -2.423444035797253       -2.5902651373696957      -2.5831963499882122      -3.0055794818196326      -2.9924918653408494      -3.044082093011999       -3.0348094165789203      -4.025234520148214       -4.0152896281129715      -3.8728583879854637      -3.868623903824956       -4.320870963863042       -4.318566672372215       -4.052373072567441       -4.054391076008782       -3.5466445923955776      -3.546683994556636       -3.1880321099327054      -3.1949944536456476      -2.3721982739516494      -2.3733037306242446      -1.9163310030385254      -1.9163390163915341      -1.3899588034566217      -1.392628106119243       -1.3757773579341799      -1.3808247591193998      0.3519186155761258       0.3153229770699242       -0.938315292234052       -0.9282608479292188      -1.5690894373672975E-4   -1.949895376345381E-4