% Model:              Untitled.mph
% Version:            COMSOL 6.0.0.405
% Date:               Jul 3 2023, 09:44
% Table:              Table 25 - Point Evaluation 2
% Time                   Total traction, exterior boundaries, x component (N/m^2), Point: 1Total traction, exterior boundaries, x component (N/m^2), Point: 2Total traction, exterior boundaries, x component (N/m^2), Point: 3Total traction, exterior boundaries, x component (N/m^2), Point: 4Total traction, exterior boundaries, x component (N/m^2), Point: 5Total traction, exterior boundaries, x component (N/m^2), Point: 6Total traction, exterior boundaries, x component (N/m^2), Point: 7Total traction, exterior boundaries, x component (N/m^2), Point: 8Total traction, exterior boundaries, x component (N/m^2), Point: 9Total traction, exterior boundaries, x component (N/m^2), Point: 10Total traction, exterior boundaries, x component (N/m^2), Point: 11Total traction, exterior boundaries, x component (N/m^2), Point: 12Total traction, exterior boundaries, x component (N/m^2), Point: 13Total traction, exterior boundaries, x component (N/m^2), Point: 14Total traction, exterior boundaries, x component (N/m^2), Point: 15Total traction, exterior boundaries, x component (N/m^2), Point: 16Total traction, exterior boundaries, x component (N/m^2), Point: 17Total traction, exterior boundaries, x component (N/m^2), Point: 18Total traction, exterior boundaries, x component (N/m^2), Point: 19Total traction, exterior boundaries, x component (N/m^2), Point: 20Total traction, exterior boundaries, x component (N/m^2), Point: 21Total traction, exterior boundaries, x component (N/m^2), Point: 22Total traction, exterior boundaries, x component (N/m^2), Point: 23Total traction, exterior boundaries, x component (N/m^2), Point: 24Total traction, exterior boundaries, x component (N/m^2), Point: 25Total traction, exterior boundaries, x component (N/m^2), Point: 26Total traction, exterior boundaries, x component (N/m^2), Point: 27Total traction, exterior boundaries, x component (N/m^2), Point: 28Total traction, exterior boundaries, x component (N/m^2), Point: 29Total traction, exterior boundaries, x component (N/m^2), Point: 30Total traction, exterior boundaries, x component (N/m^2), Point: 31Total traction, exterior boundaries, x component (N/m^2), Point: 32Total traction, exterior boundaries, x component (N/m^2), Point: 33Total traction, exterior boundaries, x component (N/m^2), Point: 34Total traction, exterior boundaries, x component (N/m^2), Point: 35Total traction, exterior boundaries, x component (N/m^2), Point: 36Total traction, exterior boundaries, x component (N/m^2), Point: 37Total traction, exterior boundaries, x component (N/m^2), Point: 38Total traction, exterior boundaries, x component (N/m^2), Point: 39Total traction, exterior boundaries, x component (N/m^2), Point: 40Total traction, exterior boundaries, x component (N/m^2), Point: 41Total traction, exterior boundaries, x component (N/m^2), Point: 42
0                        0                        0                        0                        0                        0                        0                        0                        0                        0                        0                        0                        0                        0                        0                        0                        0                        0                        0                        0                        0                        0                        0                        0                        0                        0                        0                        0                        0                        0                        0                        0                        0                        0                        0                        0                        0                        0                        0                        0                        0                        0                        0
0.01                     3936.3582344697043       3936.3609618702853       -3770.431151331074       3727.369007229149        -3751.31661883418        -3751.324674050721       3719.1381374092953       3719.128504524605        -3735.4991754965213      -3735.5196851402125      3706.911214338653        3706.893106652893        -3720.996109188804       -3721.017594137683       3691.9457473031703       3691.9275826647454       -3706.1919285848207      -3706.207590203696       3677.287754267326        3677.276440921766        -3691.625380593431       -3691.6336358844756      3662.4877590030037       3662.4858138430463       -3676.195717230694       -3676.1976489862564      3647.8307746737364       3647.835299245622        -3658.950287782671       -3658.921884127204       3633.584467690157        3633.611927309329        -3663.9499055268293      -3663.920851832404       3612.260485476523        3612.303728785097        -1819.9194094842164      -1819.819933665879       1802.2463764041318       1801.8909732617274       -5.273593902791715E-4    -4.952954732667569E-4
0.02                     229.5513081561296        229.55421369414395       -242.02403295547947      185.7454506156584        -231.94685379615467      -231.91150542315702      197.938235635559         197.9576681145692        -216.67541429920666      -216.62779905769017      214.06320002690177       214.09223659633665       -213.9575153115327       -213.89851312704906      215.00950816260337       215.05409273366604       -216.86942849152126      -216.80731383714564      210.6185616352017        210.66480374133778       -214.00247320435835      -213.96603818261815      212.34384220542694       212.37252201939594       -206.34378130280362      -206.30491211442606      217.23114932804546       217.27215062306652       -219.75586149445883      -219.67920961030887      202.46872863360207       202.5440352542108        -237.3507866783981       -237.32217777625428      187.62315395241137       187.66212302060285       -107.24469469109361      -107.34158673235204      99.16954915643178        99.03818603392408        -4.122203612407909E-4    -3.9788693343088745E-4
0.03                     0.8246481094365672       0.8261787598386611       -23.133763144686757      -29.67352799196302       -19.997510428825855      -19.990368393584923      -23.81886294648833       -23.819232469712098      -5.976150575737485       -5.959987485030597       -7.573441342839157       -7.571811812451849       2.1689987201153764       2.1839464717221757       1.1156509197608147       1.1177465668959916       1.2276863680237553       1.2205656824690516       0.9296853288188655       0.91129346259352         6.31999870573272         6.322299106952498        6.369552664207914        6.35828450104853         0.6149800422470024       0.6512745521460942       -0.02215975320882715     0.016197096780536414     -13.813013259945185      -13.771520854854414      -15.570358656939254      -15.521315528805967      -13.08765116491334       -13.09884654743902       -13.158194833530633      -13.160169426010057      0.4975584652141767       0.4448495445651235       -4.020198409636427       -3.992297196235894       -3.843957535330713E-4    -4.045233542728916E-4
0.04                     0.7415824695203581       0.7432624186415235       -13.688566537421899      -17.157226120951222      -15.396707150111636      -15.400941990784823      -19.026940065280243      -19.013771728894763      -14.744125234042901      -14.741700465463463      -16.689478658962237      -16.680720617559558      -2.0150113213050567      -2.0305113383230493      -1.6392843214429855      -1.6557181094979432      12.327998304641346       12.306255406935467       12.765853502281372       12.740957460910689       7.172052777546817        7.205736654302498        6.84070930933278         6.859593593111162        -8.791898304659828       -8.754224688732231       -9.336502771741483       -9.306371427             -13.264620689714334      -13.245290407795942      -14.018227142820379      -14.000729727827446      -8.628250954749038       -8.623379510902158       -8.11600823413859        -8.105755555026072       0.9769978812447127       0.9309136468799291       -3.652020210570328       -3.5794155760104553      -4.041251475675414E-4    -4.5202359163717194E-4
0.05                     0.69564930161288         0.6970132672498216       -9.445450399830111       -12.474626429912124      -13.617386253156113      -13.633251178675268      -17.108356545218236      -17.088204119165244      -16.18868635650248       -16.213333109386262      -18.847428675447418      -18.840006926720527      -1.5560670157874297      -1.595300905189617       -2.091115743629569       -2.1124105438190766      13.802776561474964       13.80018279430285        13.996920797994418       13.993379456281257       6.641811803942987        6.690518746791383        5.930407208743441        5.96912227537841         -9.423308471328744       -9.395526506248647       -10.905127779181111      -10.889365850541077      -13.558831015417116      -13.541482429764338      -13.906861056005248      -13.886091141392967      -8.490610727465839       -8.473480107537771       -7.773524358877209       -7.750373687488148       1.0638350580335145       1.0268755495422661       -3.590281079549672       -3.5114534412575087      -3.691513880442216E-4    -4.127458145206408E-4
0.06                     0.7217186768971604       0.7226760948461721       -8.448703245179722       -11.128225802966252      -11.856223661282062      -11.87384826356103       -14.458015164802422      -14.455259196476577      -11.311994605011215      -11.339445995944606      -14.254094571896875      -14.25468068833936       -0.34708504729175327     -0.37342742112237926     -2.45388116346487        -2.4609169145542285      8.327797164741433        8.35293342353534         8.483560865030984        8.496073730991597        5.279320510369506        5.309989182930169        4.344372537843329        4.377853632046634        -5.701549947049662       -5.679089634666591       -8.061725890402489       -8.059301371553062       -13.164934686221798      -13.146484262202964      -13.386604846781335      -13.374926374905325      -10.36409638296881       -10.348280686441226      -9.426244919493117       -9.411014065490736       1.0549828237721732       1.0093679847824362       -3.7477532494350165      -3.6763986382519622      -3.3828322872275405E-4   -3.7678375893759777E-4
0.07                     0.5130968088618287       0.5139594040207947       -0.7419631440302239      0.09732345176061838      -3.6446118455350462      -3.6776912751515347      -3.94661266798184        -3.9708271010470257      -4.488659949012519       -4.5234520780721255      -6.770891152710378       -6.780741904517057       -1.5616015861387176      -1.569449016645543       -4.262455366408268       -4.261485665305323       0.015153193701094648     0.058234660357067536     0.4346652594688797       0.4604388575948657       0.44249451327221967      0.4703062771052272       -0.41591680326391983     -0.38452769170287315     -3.4203046661915684      -3.40162922772198        -6.361151734651921       -6.368223096903071       -9.989963077700946       -9.98324894388444        -10.347380423451508      -10.352901034721476      -9.237767952398743       -9.238635803868284       -8.394395913709428       -8.418238589348928       1.4252002401902042       1.3625677347718013       -3.9291153623176966      -3.8787303182828112      -2.9817821992103924E-4   -3.46649812250591E-4
0.08                     0.13092263534653828      0.13181200050835065      12.140393665749304       19.146514861033868       9.858970911062308        9.820158510357249        13.500888339812285       13.463414370375006       2.998887366444812        2.974354112434014        3.5679155918774135       3.5652751511814227       -5.351413270782185       -5.335239192573544       -6.224435644763468       -6.210664697705068       -11.653095913835564      -11.591953777347578      -10.027423774291062      -9.991807917099514       -9.707974845732544       -9.68266988465409        -9.098066851458125       -9.074130843864006       -4.508729023413059       -4.503147457542524       -6.271604716324383       -6.305441997937355       -3.5649844185682142      -3.585510142364088       -3.4765048920087533      -3.5162461761556703      -3.561451694193452       -3.5907800778271457      -2.899394943287531       -2.9479755036388493      1.6962908742643055       1.6383330704632315       -3.57401747250359        -3.5498819692866506      -2.525229443067934E-4    -3.1906610596922597E-4
0.09                     -0.12337430250612326     -0.12213808137683319     19.390343166133636       30.53408748353001        19.40287898131017        19.352681819425698       26.6592186412533         26.63514235038661        9.505343147470608        9.494682422187628        13.740513135398768       13.740070179496026       -8.342985491820935       -8.319517542678046       -5.885203011576982       -5.8646417406177545      -22.161628082911932      -22.102392099301163      -18.87513218320359       -18.835871162957126      -20.62091298678682       -20.606318858761355      -17.516744362962505      -17.49393225006407       -7.351076218850093       -7.345994524152443       -6.0759468703715065      -6.1201562804855         2.0555393156409814       2.0240869463494295       3.7150059876178503       3.666656546433152        1.8751360550576794       1.8282728560265324       3.4803068407460698       3.4344625295077686       2.0720682541791047       2.016293730401219        -3.212409799139273       -3.190185178223775       -1.802381732425923E-4    -2.3723565900021068E-4
0.1                      -0.028934080234921992    -0.02833097288257747     14.244194987208152       24.474082333268385       17.49333978105018        17.496393565443164       25.02138188024027        25.009205158669637       11.370955885233037       11.369196824999712       16.650372612921903       16.6532905749718         -6.960387580650664       -6.94102943215679        -3.0937222226838585      -3.079047476378349       -23.42626603977652       -23.389888941935784      -19.776015632047915      -19.750741462640306      -23.631897560678425      -23.623008994660857      -19.583090875263366      -19.56601055101746       -9.198113747254213       -9.180732679116556       -5.843966286298929       -5.868880923051316       2.738132224531424        2.7288981639432977       5.340803885592555        5.311871009702767        2.6877904991760486       2.6624338745812963       4.825661463743481        4.791244137760353        1.8808636035737862       1.8153065368985921       -2.6895205557862742      -2.6679501263270367      -1.9043005923188267E-4   -2.5216786759377257E-4
0.11                     0.2464140996261914       0.24598365647775092      2.5361053036704013       7.797775873669048        6.924954045680131        6.947013998359138        11.672557799711795       11.68005932075178        7.901996175273627        7.912210523509537        11.281345886145653       11.286259284246665       -2.6678360632374534      -2.658428371760267       -0.246913776183586       -0.23829698297626123     -15.559374096906073      -15.549934586074434      -13.198153229026726      -13.189901834063388      -17.88772339345074       -17.882199464188318      -14.982176369419411      -14.970561417039777      -8.956848427472764       -8.932958368517234       -6.197474357027126       -6.197680755969957       -0.778922003460355       -0.7574151719772385      1.1375868360065766       1.140346462539171        -0.4004344487050058      -0.3829758790871933      1.1632678949311441       1.1579032802903395       1.436833785227351        1.3681643405444255       -2.3753723716478143      -2.346023877670874       -1.5720743018783647E-4   -2.12587083803432E-4
0.12                     0.4554241465896284       0.4543588977997262       -6.200780509941131       -5.845469011165807       -3.1372615103479546      -3.119239888543417       -1.920941646355641       -1.9060560276556284      1.8673296265619448       1.8902464269203232       3.0186922133412617       3.0240474733248384       0.9505130297356146       0.956811279308093        1.295147590909828        1.29553189615411         -5.583376634146629       -5.589473372718936       -5.116134330122707       -5.120610584034392       -9.831728984010356       -9.822602067213596       -8.93010130181441        -8.928863175292728       -8.34432989155481        -8.314202134961903       -7.240401497514183       -7.21471869912612        -5.256886570661726       -5.2035547236816555      -4.398291241242655       -4.363636562142055       -3.7901098105641653      -3.7449155822290976      -3.2208216938207483      -3.1977272577744813      1.1365461332527178       1.0651822860403874       -2.395145452702549       -2.3560236785266393      -1.9750916808394705E-4   -2.1848517039939488E-4
0.13                     0.5592792234982699       0.5580974761268467       -8.377488749856864       -10.206825394534338      -7.921603335547574       -7.902720048338038       -8.791616062955724       -8.776042533084219       -3.826049299543349       -3.800179436779154       -3.7925336521911275      -3.7839781633010956      1.575981595689901        1.581989203622789        1.3065380780770233       1.3031109032690231       1.3453364548315057       1.3283859794070616       1.0186693039637054       1.0046753404440432       -4.220682986797683       -4.214236073633286       -4.310892784737181       -4.313238358846088       -9.026548929690872       -8.98946389412217        -8.917368726259582       -8.877897327791146       -9.167989568069796       -9.104450358472045       -8.907550420211283       -8.855874011597596       -6.255711901382028       -6.20372635140571        -6.219495703639472       -6.184168186645103       1.0886739036594528       1.0007944752958022       -2.674156193752421       -2.621914820848046       -2.592271656131194E-4    -2.6308800796799814E-4
0.14                     0.6296016509780913       0.6285512176446585       -6.5839489519008465      -8.001921926788262       -8.295339186245108       -8.280047515835381       -9.390452613250202       -9.371881298740572       -7.288184965388252       -7.263736784242439       -7.382177850369327       -7.370376747731344       -0.39256514107278306     -0.3891321829960159      -0.009515205846971306    -0.01474129291854797     3.9131736169951123       3.891673803921571        3.982664785566696        3.9661640700778378       -1.386844753384001       -1.3803458409463494      -1.5079517417841632      -1.5030285353993318      -10.088887186049982      -10.050558817411789      -10.147417034500712      -10.094134437235436      -12.672185554653328      -12.61334331190998       -12.090936945123048      -12.04277307582584       -8.847298795018816       -8.827293937196501       -8.567469591614516       -8.532718357063128       1.4001079571283608       1.3183083632098955       -3.188902690689908       -3.155409035185381       -2.9130627716199037E-4   -3.1001437394628296E-4
0.15                     0.6775308813715512       0.6768328557408194       -3.864702349273073       -3.6736692244531515      -6.334685350528474       -6.309956868221622       -6.566656283630815       -6.550829237958802       -7.998195771435672       -7.9716353919341145      -7.535277558190803       -7.520435156081707       -3.1108930776338712      -3.1048687364863765      -1.966203393049975       -1.9745857619876053      2.5435767730841907       2.5321339191989787       3.3851436866654465       3.3726971067341944       -0.6084683286235177      -0.5977728747030464      -0.5680935740531016      -0.5556131551842709      -10.0550978040524        -10.0134227443596        -9.987643190158265       -9.941065476825383       -14.858871977432525      -14.81166758892391       -14.070360072382712      -14.034766115302148      -11.172646469788095      -11.169654130595376      -10.521199085374521      -10.505752978276803      1.779592738559292        1.6861275018418087       -3.6357143099034683      -3.5928276596842887      -3.162634666380989E-4    -3.5318384221410306E-4
0.16                     0.6678081727406147       0.6675782848413809       -1.0454030183218959      1.0049674911327462       -3.3551043316900477      -3.3298904901795856      -2.305378511359115       -2.29707756962127        -6.57819783017216        -6.558939031241987       -5.446203243553247       -5.437729453582845       -5.290122343529591       -5.284575936767095       -3.66022736839242        -3.6661760619100447      -1.4285680922645123      -1.4255073562013314      0.045908001294692066     0.045692641178964696     -1.9922820278764448      -1.9750549139842892      -1.7765770053526913      -1.7508986334204422      -9.219160411577048       -9.17642308389089        -9.097650055954478       -9.071992076656036       -14.74027103906507       -14.716162834574883      -13.723557806307689      -13.725226320250572      -11.699850820343215      -11.702011196858171      -11.183081001604997      -11.188615060474763      1.9486184383665375       1.8101471000737817       -3.8630364909613744      -3.8188134877404667      -3.3046073786667177E-4   -3.9319050180369026E-4
0.17                     0.5934920158856569       0.5936207356650662       1.388925750601654        4.8122472630058315       -0.44571995442182416     -0.47689683801036553     1.9125651351761372       1.9250830060127837       -4.141557038103486       -4.127463846906698       -2.267773004876564       -2.2605507893733514      -6.615313165527246       -6.602905488675319       -4.514392463446907       -4.504928344551761       -6.106486819998336       -6.087170304910326       -4.2757078840316485      -4.254920614215013       -5.398243830902663       -5.386072048348503       -4.8735840274057125      -4.844257824105452       -8.352237880019022       -8.319339082509682       -8.143834177506719       -8.144086162101246       -12.061759745021476      -12.063330358441462      -10.82922583915589       -10.858550754991867      -9.717893197683537       -9.744115289633726       -9.47149821931292        -9.499238920683872       2.1168745603855763       1.9733266505959923       -3.921492763806657       -3.902987502663452       -3.2908519084543604E-4   -4.163387723255367E-4
0.18                     0.49030647838449115      0.4905529798651568       1.8426261900464125       5.861393451817275        1.4650210348098553       1.4727743485359381       4.2987012430399005       4.290222108919302        -1.7409283728980183      -1.740810753285931       0.5666231728720665       0.5701997043638833       -6.598403679429538       -6.578884936752478       -4.436327138272546       -4.4151264171219555      -9.591368172230943       -9.562557642899542       -7.683353936937708       -7.647737558038948       -9.06098661123739        -9.064064255830932       -8.267249535236036       -8.245376628116048       -7.889045899044719       -7.87624136102386        -7.348449037816007       -7.369921631889403       -7.956426087698649       -7.980920437151214       -6.596321419025236       -6.643875758941099       -6.171467632988406       -6.212122908162087       -6.292563582994498       -6.3342283989180235      2.2099821658537517       2.0751975553858832       -3.7433316465358533      -3.741972834213847       -3.11057139169994E-4     -4.0971496281721836E-4
0.19                     0.41807031766900293      0.41845104678723316      -0.1482228828379354      3.161968481508576        0.936597087739172        0.9375708713850129       3.634544832446876        3.6209135308424467       -0.1289363994553185      -0.12810009429063207     2.044693787430477        2.0448265530893304       -5.233904390297913       -5.205885646257293       -3.385147482339626       -3.3571915843078206      -10.501058360941691      -10.462315521796349      -9.02810217775758        -8.99087533434674        -10.945212461540827      -10.94755052227481       -10.095932174501677      -10.082331760108879      -7.409940467126236       -7.4094698746389955      -6.48459890599238        -6.5192411065393765      -4.481603962959419       -4.514859217421067       -3.027572040656691       -3.0829624923999566      -3.0764076308760977      -3.1179230085862457      -3.269811523297294       -3.3181778537405373      2.306205955623522        2.1858368935694616       -3.5985564766220235      -3.6058095348421646      -2.7299161080692564E-4   -3.7355727342853145E-4
0.2                      0.39645678091117         0.39679786775966336      -3.2291750561606403      -1.5261112388386993      -1.3067565079837897      -1.3152191053446471      0.5968997053042638       0.5851111416125262       0.08587898784887463      0.08749704057676928      1.681956689075037        1.6829620170426152       -3.323565831010778       -3.298202460356821       -2.1151699898847607      -2.0869818464927703      -8.92051592306014        -8.88634471489598        -8.15449575528114        -8.116342684497292       -10.499473650128582      -10.495893267810246      -9.929620189811473       -9.918127794772321       -6.708549942801993       -6.717009257241539       -5.688475953943071       -5.718042987729664       -2.722979740960584       -2.757091710956474       -1.4152083044611423      -1.4473869462548947      -1.456609400980339       -1.5044348542545736      -1.6048348661067346      -1.6506351248905946      2.4246390522006354       2.3009654798041903       -3.5754412021261706      -3.560353301158201       -2.3916923866921136E-4   -3.2310098824131814E-4
0.21                     0.4079658997894267       0.4079831248192773       -5.266090881811945       -4.958585666063938       -3.5078086161009017      -3.517117419481687       -2.587183089073455       -2.5936078532398366      -0.9824779552086265      -0.9780424757383717      -0.02095577361380583     -0.01844751699517678     -2.0392294707133325      -2.017532952470778       -1.5170747854897777      -1.495091493347998       -6.3301212035117445      -6.302893136216046       -6.283459910070743       -6.249634078165233       -8.695005327803978       -8.686298762310827       -8.549722636281698       -8.539712337607057       -6.156946560881064       -6.164010414306635       -5.315630414312786       -5.337736172717786       -2.4434080486821292      -2.463282974408561       -1.4146901188597876      -1.454766580320728       -1.1212239150108325      -1.1570181159403683      -1.4654415066168038      -1.5049331780334558      2.353021423286221        2.2287220597050665       -3.401760953743404       -3.372900968216725       -2.2487744730390063E-4   -2.9593419916166896E-4
0.22                     0.4265444970178558       0.4262999026880689       -5.281009900098013       -5.458896131151421       -4.379862681696843       -4.373086034410255       -4.1414547109502635      -4.144196170545506       -2.678647717218875       -2.667837837901623       -2.131455453422166       -2.127237298373922       -2.2142867308761343      -2.1924411902104244      -2.04108391471505        -2.0191101463234378      -4.3716784642168305      -4.347933527100832       -4.726601484993911       -4.701502917128584       -6.74140297917426        -6.728932351955203       -6.860706671392236       -6.8542202985752585      -5.836744036475377       -5.842330506453235       -5.1880504598545         -5.206833758342622       -3.0644716662701326      -3.0767130699629055      -2.236807645396214       -2.2812802812129087      -1.6022857621689264      -1.6237392367989507      -2.141710600276525       -2.1744391325435464      2.1786986332824565       2.052802083720835        -3.2155278247316628      -3.185794629261727       -2.221415289446984E-4    -2.856145487759059E-4
0.23                     0.44514172960901066      0.44470648578911803      -3.8903257845945607      -3.8424644645503694      -4.141965289800576       -4.130459052445058       -4.0303814215057         -4.025624957868082       -4.198710657147103       -4.180204335212011       -3.832872216310856       -3.822652541360869       -3.6357326591060195      -3.613944066242116       -3.4338412589894745      -3.41528925699195        -3.7443911823629423      -3.72422321062784        -4.142112090600014       -4.125405967949359       -5.0637780669571555      -5.049634385553006       -5.233761803980727       -5.23477139168726        -5.448046257003657       -5.444623592727083       -4.9156023923763215      -4.9331945356956215      -4.128906224079352       -4.138143144142724       -3.469244813325379       -3.4941903449002076      -2.642194705156925       -2.6531434605922994      -3.410394934010697       -3.4333508372624912      1.9680157528571012       1.839063545267336        -3.0825341277438754      -3.0542506998022136      -2.2348155023426132E-4   -2.842450074565166E-4
0.24                     0.4615478277712523       0.461048321769306        -2.5181299930201915      -2.075615452152981       -3.5556227843043766      -3.549654299860982       -3.326901862579762       -3.3177557264101214      -5.133787099822541       -5.102197341795811       -4.806896524129902       -4.7886511092838955      -5.295822793571349       -5.270841503196249       -4.991858456223432       -4.974137681968637       -4.059715789531491       -4.043231451610936       -4.262859611125197       -4.255146883965384       -3.7287826816077803      -3.714797596760839       -3.820142944147338       -3.827494181851497       -4.697528674287822       -4.6858267340940865      -4.288713552177555       -4.298779230570126       -5.113032448107823       -5.117342913102686       -4.6131244487650065      -4.622026043481447       -3.89397389400123        -3.8972630510462736      -4.872601711856985       -4.886183335594968       1.7983501393455552       1.663644438865429        -3.048281235519401       -3.0217685389092037      -2.2943684080813418E-4   -2.8772338741270525E-4