% Model:              Untitled.mph
% Version:            COMSOL 6.0.0.405
% Date:               Jul 3 2023, 09:46
% Table:              Table 28 - Point Evaluation 5
% Time                   Total traction, exterior boundaries, y component (N/m^2), Point: 1Total traction, exterior boundaries, y component (N/m^2), Point: 2Total traction, exterior boundaries, y component (N/m^2), Point: 3Total traction, exterior boundaries, y component (N/m^2), Point: 4Total traction, exterior boundaries, y component (N/m^2), Point: 5Total traction, exterior boundaries, y component (N/m^2), Point: 6Total traction, exterior boundaries, y component (N/m^2), Point: 7Total traction, exterior boundaries, y component (N/m^2), Point: 8Total traction, exterior boundaries, y component (N/m^2), Point: 9Total traction, exterior boundaries, y component (N/m^2), Point: 10Total traction, exterior boundaries, y component (N/m^2), Point: 11Total traction, exterior boundaries, y component (N/m^2), Point: 12Total traction, exterior boundaries, y component (N/m^2), Point: 13Total traction, exterior boundaries, y component (N/m^2), Point: 14Total traction, exterior boundaries, y component (N/m^2), Point: 15Total traction, exterior boundaries, y component (N/m^2), Point: 16Total traction, exterior boundaries, y component (N/m^2), Point: 17Total traction, exterior boundaries, y component (N/m^2), Point: 18Total traction, exterior boundaries, y component (N/m^2), Point: 19Total traction, exterior boundaries, y component (N/m^2), Point: 20Total traction, exterior boundaries, y component (N/m^2), Point: 21Total traction, exterior boundaries, y component (N/m^2), Point: 22Total traction, exterior boundaries, y component (N/m^2), Point: 23Total traction, exterior boundaries, y component (N/m^2), Point: 24Total traction, exterior boundaries, y component (N/m^2), Point: 25Total traction, exterior boundaries, y component (N/m^2), Point: 26Total traction, exterior boundaries, y component (N/m^2), Point: 27Total traction, exterior boundaries, y component (N/m^2), Point: 28Total traction, exterior boundaries, y component (N/m^2), Point: 29Total traction, exterior boundaries, y component (N/m^2), Point: 30Total traction, exterior boundaries, y component (N/m^2), Point: 31Total traction, exterior boundaries, y component (N/m^2), Point: 32Total traction, exterior boundaries, y component (N/m^2), Point: 33Total traction, exterior boundaries, y component (N/m^2), Point: 34Total traction, exterior boundaries, y component (N/m^2), Point: 35Total traction, exterior boundaries, y component (N/m^2), Point: 36Total traction, exterior boundaries, y component (N/m^2), Point: 37Total traction, exterior boundaries, y component (N/m^2), Point: 38Total traction, exterior boundaries, y component (N/m^2), Point: 39Total traction, exterior boundaries, y component (N/m^2), Point: 40Total traction, exterior boundaries, y component (N/m^2), Point: 41Total traction, exterior boundaries, y component (N/m^2), Point: 42
0                        0                        0                        0                        0                        0                        0                        0                        0                        0                        0                        0                        0                        0                        0                        0                        0                        0                        0                        0                        0                        0                        0                        0                        0                        0                        0                        0                        0                        0                        0                        0                        0                        0                        0                        0                        0                        0                        0                        0                        0                        0                        0
0.01                     3936.3582344959996       -3936.3609618985242      3.6070101589302794E-4    -2.903096980162445E-4    -1181.5157545744537      1181.5185636037768       1171.0748087076158       -1171.0722650110845      -1174.1605975269686      1174.1685890702747       1165.1793986930165       -1165.175240304569       -1170.0361446778777      1170.0433653959446       1160.9076209896332       -1160.902375803677       -1165.5511770862024      1165.5567135646052       1156.4485734324248       -1156.445700947598       -1160.705862623443       1160.707669214285        1151.5326238457892       -1151.5310046711027      -1156.7156042890365      1156.7078012961701       1147.9601833452698       -1147.9531500642581      -1153.9056525196759      1153.9151168373612       1145.6065373835734       -1145.63698507427        -1130.0356674142276      1130.0512575914458       1112.0548661086095       -1112.0736760301493      -2468.0597566461297      2468.5904981042986       -1326.589459701311       1325.8890961286065       5.273521504787608E-4     -4.952878512344623E-4
0.02                     229.55130822159484       -229.55421376652563      -7.327152271585646E-5    7.571847523735187E-5     -75.81967145166774       75.8084618602229         64.55661736229155        -64.56347765120188       -67.79208724871117       67.778190566271          66.90118558122579        -66.9112684778687        -66.860187625093         66.84291657744927        67.22521400569683        -67.24038264362184       -68.04385115903537       68.02511063488097        66.08280570153335        -66.0979605827894        -67.34359118069024       67.32918366919586        66.88480424982603        -66.89077517980238       -66.39478304411043       66.38134150012738        69.94032116928096        -69.95341107839216       -67.9299900855116        67.92174190959486        62.23277956645968        -62.27081875957785       -64.90285267042637       64.89579592623161        51.157215959522915       -51.16457051473195       -144.43034993095318      144.61998115376937       -73.36535282799352       73.21410273095125        4.122012173384185E-4     -3.978664855586329E-4
0.03                     0.824648198101219        -0.8261788580359546      -2.9666685235829604E-4   -7.713673040221636E-5    -7.101182086673865       7.0981365250883055       -8.439690183823668       8.439799166248836        -1.9239979696935057      1.9188440560467246       -2.4249259438738084      2.424459909065279        0.6604923927997033       -0.6649819060069808      0.3385077134290113       -0.3392974789440252      0.3840980777398503       -0.3818091226617851      0.2917104051336812       -0.28609176485263194     2.0758735102858603       -2.076631650476818       2.100364910720657        -2.096393447474449       0.2039950520238385       -0.2160390192811688      -0.0036053020582671375   -0.009053418773512983    -3.844455526338888       3.8350143793019775       -4.2872722014763         4.275986567332217        -3.2012549094132488      3.2032287688516723       -3.227078017694226       3.2264869876689346       0.6949352370894654       -0.6300375752671641      2.974275697339867        -2.9480992180800087      3.8436638277214175E-4    -4.044918025423448E-4
0.04                     0.7415825864523323       -0.7432625477177096      -4.901785953355109E-4    -1.7599815417312925E-4   -5.916286690798897       5.91684151417363         -7.3191726589894905      7.314146800055906        -5.0624846721494965      5.062048619876025        -5.678987345629951       5.67641190240685         -0.5859310724680733      0.5905455113616638       -0.477271132730809       0.48199217141627665      3.78535208723995         -3.777778934794368       3.9439548532664364       -3.9354912056642073      2.446418899514468        -2.4580823993385694      2.337992179222293        -2.34440153912621        -2.7688256069175905      2.7584172903140445       -2.9075100201460895      2.8993184738335946       -3.268545113005609       3.266001086889246        -3.4052957808594146      3.4029639736932102       -1.942916934084053       1.9407577758772865       -1.8428572633811098      1.8391862451454166       1.3540270527093217       -1.2989549562303055      2.6979477751428553       -2.639625878216145       4.040878672075214E-4     -4.5198304836400186E-4
0.05                     0.6956494435118521       -0.6970134234920353      -3.3331590162832825E-4   -2.9331020803713415E-5   -5.454302183240238       5.459816731868784        -6.881381353678231       6.873574789607969        -5.925836448628534       5.9349718176189326       -6.845219155827429       6.842586836530463        -0.4755203504372858      0.4877495110955078       -0.6443521438987543      0.6508594583921062       4.309286644050308        -4.3073312512167234      4.3860643664554315       -4.384022541983331       2.200763892514769        -2.217453328324868       1.9642273841324962       -1.977369386426767       -2.7590969974021102      2.753217780514337        -3.1448489897664977      3.1423782773302493       -3.0236332795275755      3.0218218277884716       -3.0514927656633146      3.0486248700648666       -1.785948446834346       1.7809084042788506       -1.6575270518128318      1.6508626608428871       1.477413275678823        -1.4334930862831514      2.653360714443078        -2.590885716336475       3.6910697639265115E-4    -4.126972631510942E-4
0.06                     0.7217188455997097       -0.7226762798823825      -5.480166073712489E-5    2.684415059757139E-4     -4.796313750023326       4.803090372081394        -5.8908164905472375      5.8900728197989345       -4.429571890027491       4.439669157320461        -5.565401606584797       5.5647845499453625       -0.11047480452230357     0.11983203766517958      -0.8437820672467888      0.8460603896653844       2.6875530230510236       -2.695173897304112       2.728391122462657        -2.7321534884055128      1.6190894659066604       -1.6292835370650796      1.3306444296948308       -1.3412596099435996      -1.4883694383262536      1.4841327928662644       -2.065258010350126       2.066260526915542        -2.6756661279698424      2.673693676165266        -2.6805273708264186      2.6795993151797997       -2.081896011331509       2.0765339890721464       -1.92660541230772        1.9209924348736729       1.4685988162620514       -1.4126643602859248      2.773251409439559        -2.7159506048428756      3.3823203933932465E-4    -3.7672781565432505E-4
0.07                     0.513096997968469        -0.5139596108108213      -1.5127455625460473E-4   1.6319320959284206E-5    -1.4541979752756107      1.4671398603254027       -1.601604393531947       1.6114538373666356       -1.880667035179407       1.894741789372019        -2.8575795969770095      2.8609411906499664       -0.5953859156345263      0.5985408629139104       -1.6522441918089066      1.6516102370234829       0.011587959129116442     -0.025887934707357767    0.14599114202224317      -0.1545085639747163      0.1232537885399407       -0.1310183477137704      -0.10529310730965838     0.09715797404363734      -0.7596765555615752      0.7566484726032084       -1.3772841555592876      1.38008464322985         -1.8165106235267015      1.8163729478520274       -1.8599824422909519      1.861737737856631        -1.8153781823875381      1.813291257068392        -1.6866560924059617      1.6888767465072845       1.9679201794019066       -1.889182847383794       2.9079468539716737       -2.8658906225246614      2.981212208539177E-4     -3.465874649498602E-4
0.08                     0.1309228276879241       -0.13181221087375058     -5.549890796516799E-4    -6.832822737927735E-4    3.884155812786282        -3.8690346219738823      5.361381080448352        -5.3463777293513015      1.3578080521712756       -1.3464033459857643      1.5963436343725266       -1.5945343477827847      -2.298465712865787       2.290977482976238        -2.6785303794854367      2.672190854419841        -4.090505520861293       4.069901235838097        -3.4724663193111227      3.4610375307196604       -2.4641312325607196      2.460403695874186        -2.253074722308845       2.2499577916760893       -0.822669604365939       0.8232272449250201       -1.1066785846126863      1.1140447694630038       -0.5653995125110776      0.5688948178329475       -0.5410080785483421      0.5472924853015209       -0.6843821249290793      0.6892095541760663       -0.5787504287301939      0.5873600925597438       2.336351105446267        -2.2637969197228127      2.6421513335907227       -2.61995927354318        2.524624859106148E-4     -3.189995599390026E-4
0.09                     -0.12337412790351879     0.12213788917305733      -1.8674020269404679E-4   -2.2815939809284203E-4   7.469119256939735        -7.448935403808252       10.38755751161522        -10.376998457846387      4.424848961213261        -4.418702013056539       6.410056125463797        -6.407968908136375       -3.8550404681688453      3.843624559604728        -2.716984944996624       2.707320233860495        -8.099997643232468       8.080910091814347        -6.774057092123771       6.762426183485216        -4.897673268102272       4.899893642935826        -4.039558947822641       4.03933413737184         -1.1069954946638036      1.108362191723201        -0.8793511754697886      0.8871155520819624       0.2758191266839236       -0.2717078369895508      0.5149492335401478       -0.5087009021621607      0.36808068218381607      -0.35859169736825536     0.6758993260654631       -0.6660710502587741      2.8430946664961434       -2.7731452007445068      2.3738253243618206       -2.3533502574665186      1.80176335318261E-4      -2.3716736080684077E-4
0.1                      -0.028933919072917955    0.028330794484627456     4.7541581649923614E-4    8.481437171350414E-4     6.7014931073011255       -6.700986860240148       9.710864006109963        -9.704033139356007       5.328793940306273        -5.327153825725015       7.8433122402452256       -7.843374258962842       -3.3043903331758244      3.2953111116993785       -1.4670233841911247      1.4601910192076428       -8.766138237094129       8.756349952030458        -7.2546191758238905      7.248775310582049        -5.471723411306115       5.475688506265664        -4.386955889626103       4.38820391790922         -1.2132287827427906      1.213075302791307        -0.7381377894577547      0.7424650766922074       0.31272355795101126      -0.3117835550154892      0.6265979622477972       -0.6235293039748169      0.4881541387738854       -0.4828716800809718      0.880165642174418        -0.8724948226832593      2.584961371495541        -2.501898990873989       1.9910079954911646       -1.9712607753512525      1.9036730676524443E-4    -2.5209815201607217E-4
0.11                     0.24641426683627934      -0.2459838410630174      1.5453932809555981E-4    6.129107345878015E-4     2.712846256274286        -2.7205073239077135      4.631009066615168        -4.6325280203785395      3.677411391198806        -3.6821123708883485      5.279535237354548        -5.281711158883114       -1.2523267216117029      1.2481670479822387       -0.11376960294631736     0.10962836936082185      -5.8405733991920625      5.84024583289747         -4.857648898919034       4.857383770090088        -4.180028940822977       4.18280785322354         -3.385347294265967       3.3861037347459524       -1.1178326264502614      1.1164637040248717       -0.7403399624237978      0.7414582992890613       -0.07509882863418518     0.07304929803133009      0.11578932016600342      -0.11619062385277504     -0.052464800819978986    0.049547384945949874     0.1921405636816764       -0.19097500815203333     1.986265541873481        -1.8991405552791079      1.7639533560912977       -1.7383250027737924      1.5714333687904923E-4    -2.1251534350534088E-4
0.12                     0.45542434280449756      -0.45435911176993354     -8.097994963962574E-4    -6.666429967014942E-4    -1.286586580925554       1.2784770855333611       -0.7927014688282537      0.7862149145671116       0.8645653651969356       -0.8753325860001742      1.4084529881909853       -1.4110624148374138      0.43090394547885735      -0.4340425366351376      0.592625144845212        -0.5933085407571632      -2.064087941672513       2.0676825514527333       -1.853010908894253       1.8558321406058325       -2.34746250356129        2.3473290842637935       -2.063898995450274       2.0654439601152257       -1.0317868667548447      1.0292562014248507       -0.8571093394664637      0.8551884030340802       -0.41811975909904664     0.4140195700855509       -0.34905344670062954     0.34625637968321066      -0.5175324903953624      0.5100717880081241       -0.4690257556293034      0.46452134648101395      1.5808310443730793       -1.4901119943034677      1.7842551520948813       -1.750972288386118       1.9744193111188857E-4    -2.1841003197073776E-4
0.13                     0.5592794639537163       -0.5580977339824059      -0.0013344321711465934   -0.00146197041684748     -3.4125222448320223      3.4023459156261864       -3.823868331858099       3.8153505458931214       -1.7955990870369825      1.7836343087000832       -1.772611015141866       1.76890363590765         0.6896717640963883       -0.6928079482041389      0.5804674222712851       -0.5795586509112         0.48149145072645194      -0.4758946988491456      0.3677537250619527       -0.36323616277914905     -1.016763579365402       1.0160909123505226       -1.0047558877652123      1.0062321038465805       -1.1108341093545462      1.1075300936283135       -1.048479232811466       1.0451665172496618       -0.5933572078440874      0.5895056835246829       -0.5732231226476232      0.5699513641749501       -0.7445527471296687      0.7361855225270153       -0.7927942317456746      0.785928893920694        1.5131109724838114       -1.4005006837884644      1.9966712406146614       -1.9531877404550224      2.5915420689192015E-4    -2.630072115934917E-4
0.14                     0.629601941041326        -0.628551524450755       -0.001170670928187345    -0.0012843499817165593   -3.717013680525399       3.7078568577566173       -4.253662995809146       4.243182622180994        -3.4988208459871366      3.4875226720791606       -3.5316359349132953      3.526622940126927        -0.17361771182288843     0.17219867049090448      0.006082517885264356     -0.0039969913269851005   1.353908114797245        -1.347808762204833       1.3682614397422157       -1.3640340803409459      -0.32699240530919693     0.32581874135744826      -0.3395369787214749      0.3388884925173898       -1.2000034736362448      1.1971853785704294       -1.1488229644730383      1.1445092267842054       -0.6660509252086821      0.6633205698386564       -0.6266034516377338      0.6241907113136027       -0.9201690955889812      0.9146058969129169       -0.9624616551782967      0.9547828343094638       1.9225235887941734       -1.8181658114762218      2.3846567329202357       -2.3541719173618003      2.91226592984315E-4      -3.0992659135942137E-4
0.15                     0.6775312182718898       -0.6768332091775691      -7.229652599665126E-4    -6.259652926980941E-4    -2.904273333545401       2.8911411247504013       -3.04857430527593        3.0396957991545586       -3.951262142527095       3.9384996582918688       -3.7109188558836643      3.704138149841296        -1.3565307791575218      1.3547948027300512       -0.8379514480699708      0.842072192641193        0.8517344569090408       -0.8488806919105318      1.12769006612058         -1.1248845348495187      -0.13598732676309905     0.1338817814645223       -0.1144322536482364      0.11210573352766187      -1.090796237869944       1.088653038682338        -1.025238243049209       1.022597527432724        -0.6285102858721658      0.6267847548077258       -0.5839707860323642      0.5823889733041288       -1.0426060489725624      1.037006919219568        -1.0698579040246892      1.062674511683513        2.4221355025713236       -2.3032142752246365      2.7213519976792933       -2.682819914978797       3.161763783128796E-4     -3.530881701275726E-4
0.16                     0.6678085477088557       -0.6675786767228563      -2.21979028448005E-4     1.188272461651596E-4     -1.550390088292871       1.5378474252780197       -1.0812041281865232      1.076766200560351        -3.338813655997968       3.329099721913929        -2.7587307366186695      2.754637812830654        -2.356970203383881       2.355924718260205        -1.6038740414444388      1.6075081783617142       -0.47438849645792014     0.47385056703005557      0.023845257375297163     -0.02386474279543245     -0.4066325482159552      0.40416945474693455      -0.33914328789651715     0.3350344284625827       -0.8370347496221526      0.83609927656254         -0.7732917460334741      0.7735224025576142       -0.4691678786758609      0.4681308451242605       -0.4308586276212568      0.4302277096489133       -1.0264297660997783      1.0200098359498138       -1.0781537746448542      1.0716708579031253       2.6459947264051245       -2.468042483826504       2.8923741566937204       -2.8521407292086662      3.3036606954607974E-4    -3.93086574105066E-4
0.17                     0.593492419406877        -0.5936211569532718      1.9224120869976158E-4    6.552851866159504E-4     -0.20514966568036797     0.21957786296784426      0.8954010539221373       -0.900788149994096       -2.146661911872387       2.1391695691147476       -1.1745970442983418      1.1708345423738966       -3.030390841129729       3.0263590125516897       -2.0367963069187454      2.0337223143880436       -1.9977564938937227      1.9940995955101912       -1.3543344545625964      1.349618106996915        -0.9898027116449157      0.9905505162762764       -0.8442566805695226      0.8417598948522378       -0.5658181319288472      0.5668067855405716       -0.5040566141342072      0.5065406962642823       -0.23924516371113863     0.2384724750459981       -0.21783591768173927     0.21728619213764722      -0.838777645413881       0.8347917492809178       -0.9074218200105633      0.9032783089251455       2.872351191380285        -2.687634402764054       2.9348607665359525       -2.913636989675971       3.2898343048280986E-4    -4.162269581881956E-4
0.18                     0.4903069025755993       -0.49055342272118707     2.8298141211652306E-4    7.606202673005047E-4     0.6733231021519073       -0.6762701557578138      2.0067879791850114       -2.0017302684394265      -0.9155479138196616      0.9152848851253469       0.2977985955926823       -0.2996411684728458      -3.092983517799322       3.085436469003019        -2.048186676811728       2.039539971016755        -3.11921210214076        3.114720914810977        -2.420142063884093       2.4129048809320244       -1.4867160345560637      1.492732417205298        -1.275317884845224       1.2768875169206848       -0.3411314519094859      0.3437993080506986       -0.2733654941141378      0.2765747791398214       -0.052572793368917216    0.0517595920048374       -0.051042830262834765    0.05027686264268892      -0.532695572109242       0.5319285924551482       -0.6141505731888601      0.6131765526125642       3.0017834602203584       -2.8284731056498815      2.799239442193703        -2.7911646972073005      3.109492520117402E-4     -4.0959625591450636E-4
0.19                     0.41807075810359123      -0.4184515065573729      3.0787772998114304E-5    4.1919648999377834E-4    0.42838701169788557      -0.42833418719668676     1.6981112755337295       -1.6907653574952266      -0.07126863333000602     0.07073574105542074      1.083085900601862        -1.08300145839074        -2.4829172828880113      2.4710107437524247       -1.5790756816761382      1.566922748160918        -3.380869853294351       3.3744031423327767       -2.809432446691229       2.803109608595311        -1.6123304235647158      1.619859178215378        -1.3854848619896472      1.3901577154438987       -0.15560996075198935     0.1586204313898167       -0.09614621013606656     0.09883897114627731      0.030010784753127503     -0.03103982403809116     0.014448550371715734     -0.01547949732863163     -0.25831913149648844     0.2597776836670569       -0.32465956058927603     0.32657562815637853      3.135689101129017        -2.9809433976180717      2.688383644210247        -2.687312740555217       2.728785092621088E-4     -3.734327681873137E-4
0.2                      0.3964572371311664       -0.3967983438483982      -4.31744304293602E-4     -2.1938228055451425E-4   -0.6111414467803661      0.6148356524448272       0.2831116034546284       -0.2773766355160578      0.04124812025274731      -0.04218084836090611     0.8967221724602195       -0.8971511635057257      -1.5763665759900356      1.5653818283177834       -0.9812999465958102      0.96875283049197         -2.8134058114136606      2.8081921778186825       -2.47823118258781        2.4717617045014526       -1.395651096165607       1.4023354709227316       -1.2165499995704043      1.2218110466529395       -0.019702124047877283    0.02234484915626349      0.018411333045978792     -0.016651560830519874    0.051913176452535376     -0.053176027797457524    0.023004129689355564     -0.02402586219651256     -0.11055856403302072     0.11375647822195784      -0.15941676019131404     0.16239787417956048      3.2971189148471227       -3.137596496221266       2.669857567091395        -2.6524610022520227      2.3905149575285562E-4    -3.2297148132244676E-4
0.21                     0.4079663736288738       -0.40798361907954905     -8.578945842387942E-4    -8.170322611243952E-4    -1.6665807216563286      1.6698966257382748       -1.241908312170724       1.2442210143359886       -0.5307945573398851      0.5283153916331564       -0.007221510933919855    0.005900637951422353     -0.9584241023947389      0.949017162680835        -0.6910052931489915      0.6813425885136457       -1.9296701679395192      1.9255741786005347       -1.8371027172437113      1.8313399057644573       -1.042458064256246       1.0473892789620605       -0.9336223379940563      0.9382963284037582       0.06722466084996785      -0.06508808541584099     0.08971601908615147      -0.08848111622901197     0.07254439232838308      -0.07377626610165966     0.036613008626888696     -0.038210032952659116    -0.07703378856827141     0.0793067894098064       -0.1413332167319519      0.1437000433871315       3.2034486438431746       -3.042849868933097       2.5408588109969963       -2.513538148679155       2.2475531662832562E-4    -2.958000825383464E-4
0.22                     0.4265449903868314       -0.42630041723369505     -0.001003964268495472    -0.0010319137298268055   -2.1320823210055355      2.127238024462695        -2.040456797326456       2.040505682285462        -1.45666220302243        1.450805053192886        -1.148510463808937       1.1463641524847346       -1.0236302699016304      1.0145579617809257       -0.9134251369798597      0.9043087350376329       -1.2719195715554714      1.2680597690168107       -1.3096984760119388      1.3059289074737963       -0.7201016693826081      0.7233482239164117       -0.6577298482824544      0.6616593934882069       0.1263310858641587       -0.12460508275101863     0.14124506006851395      -0.14038413322042625     0.11651222779091858      -0.11790015731622941     0.07572900889046122      -0.07812324312937426     -0.11096632713007049     0.11146420311577146      -0.19604567237283793     0.19700014881787908      2.9706849399667563       -2.80791285798262        2.403844141298834        -2.3760390864279692      2.2201498791421078E-4    -2.8547585606220744E-4
0.23                     0.4451422445364825       -0.4447070223915378      -8.30786634114733E-4     -8.209278543843679E-4    -2.065781818476549       2.058500710685683        -2.036359753562126       2.032645274400555        -2.3158912557792917      2.306014842228133        -2.098721502432045       2.0935999394768903       -1.650509228967128       1.6425858786336704       -1.5141953857008268      1.507749905529984        -1.0303073948625934      1.0274893522873134       -1.0780003455838814      1.0765454324206591       -0.46999501090360174     0.4720473117282469       -0.42647761813969204     0.42993602834338         0.16820696946184538      -0.16663674609476647     0.17715202517829037      -0.1767231502732613      0.18384706273104895      -0.18564859449162732     0.14000241248999318      -0.14242590773428446     -0.18174482526881686     0.1803737184036065       -0.2937302273385577      0.2924832617913328       2.688296853621629        -2.5216219701576916      2.3072120055700482       -2.2804324686370783      2.233503864417958E-4     -2.841015112143844E-4
0.24                     0.4615483659776308       -0.46104888189369        -5.615824016591553E-4    -4.892295421554116E-4    -1.8090715855943085      1.8047414938749662       -1.715566610140052       1.7097639503455042       -2.8722769281160754      2.8553325051555927       -2.6698860378275002      2.660648932192871        -2.3703933500468235      2.3625022050133166       -2.17295272819913        2.1682987126987165       -1.053519074231488       1.052328299898352        -1.0421534297673307      1.0434097633832844       -0.2910067057112278      0.2923364269034806       -0.252026457079604       0.25489658507877905      0.18974162774210146      -0.18821038216560323     0.19400057600151221      -0.19375913767785652     0.2577152954149228       -0.25982404679365684     0.2132031819138356       -0.21560345188771263     -0.2580270288582429      0.2548892006765988       -0.3956433993317853      0.39211276140104356      2.460621478210078        -2.286690932492787       2.2840755816644887       -2.2584701696765737      2.293006892503145E-4     -2.8757472093934416E-4