% Model:              Untitled.mph
% Version:            COMSOL 6.0.0.405
% Date:               Jul 2 2023, 21:04
% Table:              Table 23 - Point Evaluation 5
% Time (s)               Total traction, exterior boundaries, y component (N/m^2), Point: 1Total traction, exterior boundaries, y component (N/m^2), Point: 2Total traction, exterior boundaries, y component (N/m^2), Point: 3Total traction, exterior boundaries, y component (N/m^2), Point: 4Total traction, exterior boundaries, y component (N/m^2), Point: 5Total traction, exterior boundaries, y component (N/m^2), Point: 6Total traction, exterior boundaries, y component (N/m^2), Point: 7Total traction, exterior boundaries, y component (N/m^2), Point: 8Total traction, exterior boundaries, y component (N/m^2), Point: 9Total traction, exterior boundaries, y component (N/m^2), Point: 10Total traction, exterior boundaries, y component (N/m^2), Point: 11Total traction, exterior boundaries, y component (N/m^2), Point: 12Total traction, exterior boundaries, y component (N/m^2), Point: 13Total traction, exterior boundaries, y component (N/m^2), Point: 14Total traction, exterior boundaries, y component (N/m^2), Point: 15Total traction, exterior boundaries, y component (N/m^2), Point: 16Total traction, exterior boundaries, y component (N/m^2), Point: 17Total traction, exterior boundaries, y component (N/m^2), Point: 18Total traction, exterior boundaries, y component (N/m^2), Point: 19Total traction, exterior boundaries, y component (N/m^2), Point: 20Total traction, exterior boundaries, y component (N/m^2), Point: 21Total traction, exterior boundaries, y component (N/m^2), Point: 22Total traction, exterior boundaries, y component (N/m^2), Point: 23Total traction, exterior boundaries, y component (N/m^2), Point: 24Total traction, exterior boundaries, y component (N/m^2), Point: 25Total traction, exterior boundaries, y component (N/m^2), Point: 26Total traction, exterior boundaries, y component (N/m^2), Point: 27Total traction, exterior boundaries, y component (N/m^2), Point: 28Total traction, exterior boundaries, y component (N/m^2), Point: 29Total traction, exterior boundaries, y component (N/m^2), Point: 30Total traction, exterior boundaries, y component (N/m^2), Point: 31Total traction, exterior boundaries, y component (N/m^2), Point: 32Total traction, exterior boundaries, y component (N/m^2), Point: 33Total traction, exterior boundaries, y component (N/m^2), Point: 34Total traction, exterior boundaries, y component (N/m^2), Point: 35Total traction, exterior boundaries, y component (N/m^2), Point: 36Total traction, exterior boundaries, y component (N/m^2), Point: 37Total traction, exterior boundaries, y component (N/m^2), Point: 38Total traction, exterior boundaries, y component (N/m^2), Point: 39Total traction, exterior boundaries, y component (N/m^2), Point: 40Total traction, exterior boundaries, y component (N/m^2), Point: 41Total traction, exterior boundaries, y component (N/m^2), Point: 42
0                        0                        0                        0                        0                        0                        0                        0                        0                        0                        0                        0                        0                        0                        0                        0                        0                        0                        0                        0                        0                        0                        0                        0                        0                        0                        0                        0                        0                        0                        0                        0                        0                        0                        0                        0                        0                        0                        0                        0                        0                        0                        0
0.01                     1554.7303668120728       -1554.7306040663107      9.84111000576604E-4      -9.470820921535505E-4    -466.7511602890868       466.74618154481493       462.4945241244396        -462.5002420556989       -463.9119348130671       463.90378777565485       460.31218005537244       -460.3213159308017       -462.03804402416756      462.0270795084658        458.4692996794405        -458.4795940213745       -460.3268545611053       460.3154661250505        456.73754794504646       -456.7472216795559       -458.5423156127048       458.53213665583576       454.9670063203307        -454.97381925254126      -456.84107312939864      456.8322006796048        453.39742663502705       -453.4004107560541       -454.8047706472695       454.80064203774305       451.3723010871897        -451.3803732365461       -450.46262684518035      450.4603980843168        443.88667998613937       -443.89033953690404      -976.5768943575202       976.6967983983138        -522.9096829457251       522.7641366646598        1.68886443402949E-4      -1.6548250273008166E-4
0.02                     112.97123057869794       -112.97252947421309      6.797871211361439E-5     -7.766251629170995E-5    -36.32670286375105       36.32381565519307        31.65641796460867        -31.660586544319777      -33.64961228484366       33.64428653721256        33.031158953304036       -33.03635920139055       -33.1130568944765        33.107061034198416       33.15552456952854        -33.16061449946504       -33.43388650391351       33.42942953305398        32.74390077735525        -32.7463936059107        -33.12738331884002       33.126875080789716       33.04256318849252        -33.040296457691234      -32.61858559883374       32.619539698343246       33.64563177855267        -33.64357364899277       -33.61229707794147       33.61200846885302        31.084857793087238       -31.091021157683322      -33.910498321186616      33.911795686022415       28.096831832777838       -28.10043189286593       -71.95614150965784       72.06648687003045        -36.73019774953016       36.6455520525463         1.599544582355449E-4     -1.651864391391836E-4
0.03                     0.3654557050891594       -0.3663271667802672      -1.7742900391626293E-4   -2.1509151455934017E-5   -2.95797836541577        2.9659427372583442       -3.4493381716306075      3.4527550732476957       -1.035684153455363       1.0440861101192989       -1.2598393517551254      1.2652806197198934       0.2286359271617741       -0.2209585425434071      0.056373932047481944     -0.05077130805964414     0.4340732428234221       -0.4278550295966125      0.32449767618644365      -0.31893899123020775     0.7928847352031936       -0.793410332591684       0.7021947477112503       -0.7025158247356951      -0.17587786264688432     0.16694022335039682      -0.3322873665415531      0.3226425004743056       -1.7745621095620272      1.7653291414111698       -1.9191344691150014      1.9091441451624394       -1.5235418671037808      1.5207885387405227       -1.524057535168764       1.518622462016987        -0.46188249347721705     0.5231127299389366       0.8097836264450574       -0.8252946857438448      1.5990214034979888E-4    -1.696044297465534E-4
0.04                     0.3414277579438337       -0.3420827316442454      -1.9609057276337438E-4   -1.7244032796126518E-5   -2.8317306892717116      2.837494506139107        -3.4608647160712684      3.458725256788147        -2.1681687184981557      2.1695275014598474       -2.484621086824758       2.4823572522699004       -0.11032095935904765     0.1131987826850782       -0.2110939979849831      0.21225604014986715      1.5979790804138339       -1.5952865368743965      1.4829818390860057       -1.4811291297330802      0.8425560107193959       -0.8465778375030661      0.6444088259395064       -0.6475275060108292      -1.1440245322288485      1.140037988581473        -1.3464670358587967      1.3442313266380057       -1.5771471679634512      1.5754573390870679       -1.6609880586482348      1.6582938646676775       -0.947305633830204       0.9457593378254003       -0.9558928599711414      0.951657605072763        -0.07293984809575844     0.08575414541646753      0.6235660530788025       -0.619206022497756       1.64069214647415E-4      -1.7607796574327147E-4
0.05                     0.3395303256022494       -0.33988196536929066     -1.5152693239406378E-4   2.9512159479994082E-5    -2.6715309093433226      2.673847720420353        -3.3090654749451986      3.3079715299741306       -2.4956939863222494      2.498243962871883        -2.887327437715859       2.8873387666640067       -0.16284339296098949     0.16608904599629748      -0.30611132932009044     0.30767956062914326      1.6615235936472965       -1.6625730713905613      1.5493729733836958       -1.549794055012969       0.7300607974707647       -0.7344782658945896      0.5097557287455008       -0.5136979547790681      -1.2003793805167384      1.198279276155994        -1.3685129708309491      1.3686523344749646       -1.50074519203921        1.4988147264517946       -1.5301971291997067      1.5279010243164026       -0.8724440715387101      0.8693951424208117       -0.8559080056879507      0.8514816989802896       0.02359824448872098      -0.016335573042480626    0.5492936241042644       -0.5418688458196919      1.7929375571278504E-4    -2.0064818955280506E-4
0.06                     0.32706537226216575      -0.32736487924546104     -9.018599122545545E-5    1.1493673093609935E-4    -2.2520329457522883      2.255856361155341        -2.7740388502371482      2.7751934485444045       -1.8629560245534917      1.8665166033540386       -2.2937213159206635      2.2943914085955166       -0.2664087258999528      0.26832424526692944      -0.5212960186965636      0.5215213789046642       0.8536555838513129       -0.8571821535818553      0.7571356757192819       -0.7587776263880464      0.5117182288600488       -0.5147120943023766      0.3555433654086163       -0.3589729500497677      -0.6808188457864586      0.6782117986620124       -0.8595828890654467      0.8599379650221022       -1.3247875858825733      1.3227012668842477       -1.3556404134220865      1.354274791610838        -1.0101335458821379      1.0062256398815708       -0.9818025901293432      0.9776087915756537       0.05114041593059962      -0.0407680315580236      0.5992190831361046       -0.5868866863548292      1.7849397440629927E-4    -2.0307848846600428E-4
0.07                     0.24562431012381464      -0.24593585274166616     -1.0289001305480161E-4   1.017215595888743E-4     -1.1930379187732483      1.1982476383432452       -1.4741507966328375      1.4780260687585716       -1.0070832411374693      1.010978591161495        -1.3980269924117366      1.3993552087723224       -0.5296760679193087      0.5300226770112783       -0.8359996080866285      0.8352765030444291       -0.12564568630502115     0.12106143214022097      -0.17622285183409098     0.17402116166572987      0.07798913997223528      -0.07962262953370688     -0.009274498621913955    0.006861673759926539     -0.2742577405940497      0.2716457640064953       -0.4397984290401567      0.4408285964975277       -0.8634078354217454      0.861980732352183        -0.9022417506537569      0.902854099719516        -0.842785797967422       0.8377337189441996       -0.8206838133665216      0.8209206113095249       0.21731950044644668      -0.17305757246374479     0.6209419579378328       -0.6046954054356688      1.503562893944174E-4     -1.7740724169555672E-4
0.08                     0.11788542373507209      -0.11821070608124322     -1.657553770311182E-4    -5.692323157835411E-7    0.3039851218671714       -0.3008341125650581      0.3736570189922018       -0.36857391085669544     -0.22471954478573902     0.22846756555087178      -0.4237184720310983      0.4260470375521055       -0.9290001239160618      0.9284068810368906       -1.138997499562911       1.1380668951328472       -1.1260002776774463      1.121159202108783        -1.0845258011011565      1.0816331795683913       -0.5967571815154185      0.5955750361147341       -0.5684072646233764      0.5659759357798377       -0.15499962879425017     0.1533231188041667       -0.23700337650432013     0.23784186991731004      -0.19221955262180093     0.19205743323158725      -0.2043715442264648      0.20500730074755993      -0.27339761719185923     0.27307959503344265      -0.25599303572695353     0.25780824193554686      0.3558304050291165       -0.3169545464218504      0.5323273897540519       -0.5323218329406699      1.2239284479689976E-4    -1.5581970098673342E-4
0.09                     0.009082644189464086     -0.00937205979821214     -1.4335508752316706E-4   -1.8336516889316812E-6   1.5588114059658666       -1.5564895451898604      2.0059843355337845       -2.0036792860855055      0.46283996257468807      -0.4610005453393574      0.5607657713646587       -0.5596847575909577      -1.3022704893916264      1.3008804461828696       -1.3122978966778818      1.3105788308399988       -2.0526556936100286      2.048041142679468        -1.8775836066834237      1.874196116578339        -1.3161331895380604      1.3152490380130768       -1.1462381435822695      1.1443383665011642       -0.2036672026122589      0.20285902061939734      -0.14891364485356        0.1495630522198211       0.3942478722159033       -0.39327499636443264     0.4564375986753708       -0.4551523999726232      0.3261212534485886       -0.32371924753578796     0.39850428980757235      -0.3961978035568049      0.5957418428753235       -0.5646711595367482      0.4921372382687627       -0.49003288257781885     8.120229337664741E-5     -1.078642891423127E-4
0.1                      -0.02649364814384077     0.026214872934373936     -4.090757211405727E-5    1.1104623743318776E-4    2.02855253718167         -2.0275870114202728      2.645345783617284        -2.644523736431286       0.9334367489200237       -0.9336244502475537      1.2400259211824385       -1.2397158019804908      -1.4135642212985595      1.4127721901075985       -1.2564298813290895      1.2555700989191454       -2.62422923153952        2.621195665835204        -2.4027713852542023      2.4010927138715656       -1.785646144150487       1.7831411992963244       -1.5324623806894573      1.5309586780610012       -0.2967728361307266      0.2965868178469755       -0.12690199744443556     0.1271609462468557       0.6554368883704147       -0.6550563449222234      0.7724424687572884       -0.7722543016844456      0.6339747382079675       -0.630429047164937       0.727981635974212        -0.7257883923793573      0.7114636725809059       -0.6842197148781349      0.438626747118499        -0.4399102129326728      5.674028255821447E-5     -7.686596905471968E-5
0.11                     0.02493642641903117      -0.02514855587210076     2.0147667376679834E-6    1.602707668653114E-4     1.567144236068306        -1.5684019282065416      2.133545760424627        -2.1338241142511376      0.9389969428259972       -0.9408445680823005      1.2666239261663599       -1.2651198587163561      -1.219323096785026       1.2186444533138934       -1.0119244916235515      1.0116124399684057       -2.5940638580227238      2.5939050098126355       -2.380946471645463       2.3803918668352044       -1.8875978193374827      1.888889698204299        -1.6043552892248454      1.6029898223492565       -0.3805058377004725      0.3794282694673624       -0.208207516286468       0.20803759861799417      0.5334984125044211       -0.5361032745334299      0.6540143515595198       -0.6547880720560111      0.5479250804794347       -0.5469477001448355      0.6612201308883399       -0.6586237807265358      0.6387610782764641       -0.6063240238427917      0.3782970357658654       -0.3799457211225131      5.2542318625460115E-5    -6.91245964637232E-5
0.12                     0.12508900717077898      -0.12487047045836867     -6.455183863765535E-5    7.805857448023312E-5     0.5446306380349195       -0.5466763372280112      0.8950195501485616       -0.8977220377726819      0.44027432795176347      -0.4399754784498611      0.6887797443904518       -0.6927613154858421      -0.8893800541268232      0.8839652490017964       -0.7986533053739324      0.8032129205592058       -1.9901882801584052      1.9885933569450494       -1.8876328678499101      1.891271974950525        -1.6097561544388883      1.6091028941252206       -1.418927140997539       1.4193523778964852       -0.5304793767942703      0.5275338363514717       -0.37911432942042844     0.37862290832847806      0.16594456797232512      -0.16922783807909075     0.24724297657472477      -0.24877824924557526     0.2041142554549064       -0.2065495470607895      0.29634825961483235      -0.29694502633986253     0.4503342747562664       -0.4252693203048909      0.348962819621097        -0.34713467248761076     5.8516495176602535E-5    -8.781149226354506E-5
0.13                     0.2240191536406545       -0.22357249165245463     -1.7398553188657795E-4   -7.198201038394192E-5    -0.5060029912391665      0.5034884440752823       -0.514288412915773       0.5123546044583465       -0.3001180234972329      0.2994740701223549       -0.2905259688104872      0.28923307165307865      -0.6578705734660288      0.6576645120899957       -0.6508357501276052      0.6520220281281169       -1.1820301920570095      1.1820454263505384       -1.1659029088288082      1.1686559776643748       -1.151632132626336       1.1505092000179793       -1.0969606576640487      1.0978442394452523       -0.6752170070223618      0.6727274244822116       -0.5938056997729351      0.5911954322593627       -0.30598600897655204     0.30114929770809695      -0.2535391605404793      0.24984788517319612      -0.19969837518995254     0.1943514882520296       -0.14490500959927555     0.14135749867270567      0.23663710513752242      -0.21285790246140152     0.3448885290582929       -0.33387422463218414     9.945786611488425E-5     -9.034708012195029E-5
0.14                     0.303363688774111        -0.30277378634214613     -2.6506669708070696E-4   -1.9971049607536706E-4   -1.3001027745704485      1.2951394601314465       -1.5744947344679374      1.5733115073548072       -1.0574858176187525      1.0505206735198944       -1.2185752372877547      1.2180002903626084       -0.589748264383567       0.5921984977754422       -0.6532837035201682      0.6527937714330114       -0.4834221641825167      0.48432602507619793      -0.508644181687857       0.5089517103415765       -0.6941645136818375      0.6928070123830349       -0.7122240511836282      0.7130243647584251       -0.8161993225753963      0.8143307620419379       -0.7965214853282374      0.7935130406817497       -0.7314694025092168      0.7266892062199091       -0.7000397705112729      0.6957276990116865       -0.5633019038501879      0.5569231119664191       -0.5344048861201404      0.5300384434380063       0.06887454616104008      -0.04029534996437994     0.39132064542712963      -0.36692549618196074     1.3582272339877747E-4    -1.2193604264475137E-4
0.15                     0.36213862232672195      -0.3615983182131117      -3.126977920631102E-4    -2.62546068449665E-4     -1.7712700893920355      1.7674697159643342       -2.1223614748788604      2.121260624894358        -1.6144512750434827      1.6101629041566867       -1.822342939505108       1.8221244438866786       -0.6720600662925678      0.6699313107947273       -0.7342037196104225      0.7363562288789409       -0.08221126058348632     0.0852504199870956       -0.08041313535944736     0.08171152849641694      -0.3728332799393477      0.37139585582528434      -0.39966809012552285     0.3984857749088213       -0.9188339985552287      0.9156140062206057       -0.9137686098319125      0.9099904062672894       -1.0518850157969228      1.0478320743514202       -0.9956787825297903      0.9920354683107261       -0.8844427874177547      0.8785322016037601       -0.8254185563703507      0.8184929007575308       0.1608433396165821       -0.10072783021910699     0.6129036487452065       -0.5777666990216195      1.634851880914086E-4     -1.6900748937809907E-4
0.16                     0.3894665088314412       -0.389026250913987       -3.115069130493753E-4    -2.612887856828783E-4    -1.8869628810777197      1.8838399586190557       -2.2208258027110697      2.2196193250336353       -1.8769080721489482      1.8743755216247013       -2.0353162675597463      2.034299448446201        -0.8207808260569837      0.8204628335847238       -0.8415779875879663      0.8425448892658525       0.024254008538049404     -0.024021233417746868    0.03215835508622393      -0.03083474676588265     -0.24899640028907688     0.2468366540143424       -0.2509006824654989      0.24939747052749972      -0.9324019528521801      0.9284549240098882       -0.9367574487169641      0.9331066995047582       -1.1860251412054916      1.1830353883162554       -1.1489035295339098      1.145887127640939        -1.0252903586605173      1.0261758672183268       -0.9803723612696031      0.9823204589916075       0.22535527230644342      -0.17213884125977877     0.7435904506612647       -0.7312163699051883      1.860159580766179E-4     -2.100515511101343E-4
0.17                     0.38454432203000904      -0.38447258560015124     -2.7040785982468396E-4   -2.0693848536013082E-4   -1.675534090714431       1.672916358554049        -1.9575901279086338      1.957360572043198        -1.784637438853828       1.7826544746657844       -1.9518149855607891      1.9517318327669004       -0.9394833637653319      0.9390916308902376       -0.9358629707168891      0.9312465485166933       -0.16961001090379751     0.169243028059835        -0.13571498272479787     0.13742462525484284      -0.32722004215017253     0.3234797758779029       -0.3099575509525355      0.30766300118640766      -0.9068794239921105      0.9023208035756689       -0.8983437723357761      0.895950940250992        -1.14231931565907        1.1411575955179143       -1.103736707818162       1.103694719994989        -0.9933431319507497      0.9948795405646685       -0.9441395087379736      0.9468015992440414       0.26574638519683447      -0.2119103161485661      0.7666859965586066       -0.75847642000477        1.9705279991162925E-4    -2.3669070506914457E-4
0.18                     0.35467521320152495      -0.35487476059662215     -2.1267011934811286E-4   -1.2464607687334706E-4   -1.2498100702093187      1.2476221695149352       -1.4034173926514897      1.4041997241828104       -1.4677597251364867      1.4664265050087038       -1.5729351477703002      1.5737250595995689       -1.0397873228583923      1.0385748457617814       -1.052745871255743       1.0540594942659975       -0.5671764457331827      0.5637717698158644       -0.5035550685813619      0.5025402301619227       -0.5882890525323259      0.5825851995263696       -0.5511897845841477      0.5476634118406789       -0.8620005875710917      0.8614468472334966       -0.8294382200032198      0.8285530477481295       -0.9529390080673048      0.9539357139218219       -0.8932765431215897      0.8950837654063918       -0.816734377616549       0.818596690643244        -0.7782232096179382      0.7808170167273014       0.38169055103498994      -0.32008394837122234     0.7630237878865331       -0.7533794607750585      1.9797523843689756E-4    -2.48379428681821E-4
0.19                     0.3116984505016819       -0.3119772243715992      -1.5506986234076203E-4   -4.319973489574913E-5    -0.753721486764458       0.7540657466389692       -0.7310620927298219      0.7319904068293202       -1.0356313800339336      1.0365892732137396       -1.0313610932561548      1.0331625984529245       -1.1404616284062832      1.1389824730601226       -1.10372327460867        1.1040731173263216       -1.0862288435448648      1.0809862756978          -0.9774409775749254      0.9720685366177233       -0.9513559891191673      0.9483840073328673       -0.8676658764524876      0.8644336840152148       -0.8059690048791632      0.8070782192144956       -0.7471897501572065      0.7485764671782402       -0.6864967961182638      0.6887399097345193       -0.6142508941129594      0.6169281562296948       -0.5601737059776994      0.5622454203541473       -0.5381580779641489      0.5413186714582494       0.4919691828514354       -0.43322977890201364     0.7308259188771056       -0.7240120441664226      1.8992665969330452E-4    -2.4576319720371915E-4
0.2                      0.2737305052480874       -0.2740257599984818      -1.1464376055769776E-4   1.0077056270867135E-5    -0.357998456709967       0.3624192153528225       -0.19125713291118704     0.1918272088017384       -0.6226067049898047      0.6234486058081026       -0.5179445815446214      0.5184163375645935       -1.2199902165734244      1.2156734196914378       -1.1352796467378197      1.1327517193600778       -1.5663177043432441      1.5595939890320187       -1.4270865582461507      1.418138537701383        -1.2664261479978387      1.2666608301366504       -1.1437121976589184      1.1411733679300928       -0.7498730019859223      0.752021883636054        -0.6577312395478014      0.6597959049945419       -0.4416150072041897      0.44426767658615274      -0.3559765405431519      0.35891831528855245      -0.31959651928518784     0.32177270109520506      -0.30970976472843087     0.3127012806974365       0.5470287282472628       -0.4931840696163874      0.6858663786951633       -0.6798847689314931      1.7632784388035554E-4    -2.327641857441109E-4
0.21                     0.2570483900312942       -0.2572888659313307      -1.1431476505802118E-4   1.237008031938075E-5     -0.21097723184186234     0.21501111624091215      0.024817227971477167     -0.022795715685816002    -0.3990269550777131      0.3994449095449081       -0.22489980918169328     0.2257027412823982       -1.2723246729526392      1.2666338943675557       -1.1199909212462915      1.1177602724866167       -1.8597791168511901      1.8545625016993221       -1.7124034716492775      1.7062393570110683       -1.4476657535350668      1.4487527642359208       -1.2870160309296743      1.2869209316698864       -0.6854541515163373      0.6885417898559694       -0.5756479431934003      0.5782829450583864       -0.28010696578241373     0.2825270280036517       -0.19630351174507596     0.19890753001765002      -0.16991253416455232     0.1707803083052003       -0.16151545041782905     0.16406402466343362      0.5979860897853072       -0.5412822118491603      0.6703845586231214       -0.6612897426048208      1.6127153432301787E-4    -2.1568052493985962E-4
0.22                     0.26408427008061636      -0.26414813478509314     -1.6709086258182015E-4   -4.743492203318489E-5    -0.36664564516236897     0.36998057742439017      -0.14699500097639778     0.14828674555668853      -0.43992277666840424     0.4410918566901527       -0.2517378420875337      0.2519569936505426       -1.2748638904956495      1.2685950295841972       -1.155495289891077       1.1465811389009617       -1.8588591074822527      1.853383108637123        -1.7402123773537532      1.737914681739694        -1.4296448552667123      1.4300886981513379       -1.2678314946991847      1.269521612529208        -0.6435470419410594      0.6463933680096543       -0.5222403737552264      0.5246205594437638       -0.22356574844014265     0.22535123464622508      -0.15482781734162904     0.15758703889616682      -0.1280126593266318      0.1287304136196047       -0.11869571171502236     0.1208175398455423       0.6290442218801499       -0.5732727886009731      0.6799721718796843       -0.6697241360377366      1.510028732718928E-4     -2.0110139421767583E-4
0.23                     0.2865603433004534       -0.28640923705378557     -2.588234210974538E-4    -1.710860266211922E-4    -0.7074355764854028      0.7100395411262537       -0.6381203173175911      0.6364797036440136       -0.7008387121355479      0.7001491170087653       -0.628512249543675       0.6224608803239234       -1.24515244616764        1.2391912442160737       -1.1942464863000741      1.1903839981782727       -1.6568394272141589      1.6515785704001003       -1.5496088671807808      1.5491628073493922       -1.2576510797527103      1.259132809257986        -1.1261683419274247      1.1283047868422118       -0.603853534220622       0.604619600445365        -0.5089851441441527      0.5107552749474751       -0.2617720148339917      0.26240568542376574      -0.189649425875917       0.19218360377529453      -0.1719363930598462      0.1723750964913452       -0.1696344502064571      0.1712308984940381       0.5905782959209709       -0.5386141526760185      0.6831662653113062       -0.6737024131525761      1.5043010681359877E-4    -1.9386148272319964E-4
0.24                     0.3142353228544616       -0.3139364252254022      -3.66446013902344E-4     -3.287276503085579E-4    -1.1000336628822964      1.0950947035745378       -1.2210842689229002      1.2186150583313788       -1.107916456671414       1.1024340486866049       -1.1790597378762007      1.1759437605892598       -1.2550387331906283      1.2502106160867894       -1.2590942850634537      1.255943428979946        -1.3343033977558252      1.3323244204937992       -1.2609835315547113      1.2608771729947315       -1.012527102636433       1.0132784544855573       -0.9283664740868758      0.9300316878002446       -0.5773401279757198      0.577818911342542        -0.5110733250188897      0.5125955604089919       -0.34151174112362975     0.34141567168537623      -0.28158951641765706     0.2813106029343256       -0.26162396298239154     0.2616303055310004       -0.2788183442626735      0.27917267188093714      0.5132160922694234       -0.46649146647714923     0.6914987470499878       -0.6829580282163741      1.5684139077639005E-4    -1.94913829195114E-4