% Model:              Untitled.mph
% Version:            COMSOL 6.0.0.405
% Date:               Jul 3 2023, 09:45
% Table:              Table 26 - Point Evaluation 3
% Time                   x-coordinate (mm), Point: 1x-coordinate (mm), Point: 2x-coordinate (mm), Point: 3x-coordinate (mm), Point: 4x-coordinate (mm), Point: 5x-coordinate (mm), Point: 6x-coordinate (mm), Point: 7x-coordinate (mm), Point: 8x-coordinate (mm), Point: 9x-coordinate (mm), Point: 10x-coordinate (mm), Point: 11x-coordinate (mm), Point: 12x-coordinate (mm), Point: 13x-coordinate (mm), Point: 14x-coordinate (mm), Point: 15x-coordinate (mm), Point: 16x-coordinate (mm), Point: 17x-coordinate (mm), Point: 18x-coordinate (mm), Point: 19x-coordinate (mm), Point: 20x-coordinate (mm), Point: 21x-coordinate (mm), Point: 22x-coordinate (mm), Point: 23x-coordinate (mm), Point: 24x-coordinate (mm), Point: 25x-coordinate (mm), Point: 26x-coordinate (mm), Point: 27x-coordinate (mm), Point: 28x-coordinate (mm), Point: 29x-coordinate (mm), Point: 30x-coordinate (mm), Point: 31x-coordinate (mm), Point: 32x-coordinate (mm), Point: 33x-coordinate (mm), Point: 34x-coordinate (mm), Point: 35x-coordinate (mm), Point: 36x-coordinate (mm), Point: 37x-coordinate (mm), Point: 38x-coordinate (mm), Point: 39x-coordinate (mm), Point: 40x-coordinate (mm), Point: 41x-coordinate (mm), Point: 42
0                        -850.0000000000001       -850.0000000000001       0                        2                        3.3329999999999993       3.3329999999999993       5.333                    5.333                    6.667000000000001        6.667000000000001        8.667                    8.667                    10                       10                       12                       12                       13.333000000000002       13.333000000000002       15.333000000000002       15.333000000000002       16.667                   16.667                   18.667                   18.667                   20                       20                       22                       22                       23.333                   23.333                   25.333000000000002       25.333000000000002       26.666999999999998       26.666999999999998       28.667                   28.667                   29.999999999999996       29.999999999999996       32                       32                       850.0000000000001        850.0000000000001
0.01                     -850.0000000000001       -850.0000000000001       0.08937594712426135      2.0892416335881223       3.429748957862481        3.4297490748617805       5.429755167670914        5.429755361292986        6.762389115565225        6.762392516422574        8.762364950699471        8.762368500509222        10.093650502056537       10.093656039766453       12.09359795705739        12.093603727951399       13.425749779746242       13.425755585091427       15.42567785823005        15.425683976535028       16.758542850062693       16.758549035288173       18.758459255674275       18.758465832195693       20.09049974828621        20.090493318327315       22.09041317221955        22.090407259007154       23.429514203645564       23.429501523002266       25.429391504778703       25.42937937806058        26.746254232121917       26.746351025350677       28.746161427565447       28.74626015807821        29.999999999999996       29.999999999999996       32                       32                       850.0000000000001        850.0000000000001
0.02                     -850.0000000000001       -850.0000000000001       0.40143449699929074      2.401548787071515        3.849550720863746        3.8495622518767822       5.850963723563785        5.850975108641383        7.220078999132193        7.220127449369822        9.221787756927254        9.221836007676517        10.523068905315862       10.523165568673107       12.524738498904322       12.524834843324244       13.84352197953335        13.84366905427913        15.845207320250603       15.845353895630199       17.166500131909906       17.166605612975776       19.16823287551724        19.168337928209606       20.53343072676929        20.533394980758207       22.53501579013058        22.53497973528658        23.90378086300988        23.904071973160413       25.905360928768342       25.905651430558006       26.987105466330778       26.988014862346482       28.98765990789534        28.98856966184774        29.999999999999996       29.999999999999996       32                       32                       850.0000000000001        850.0000000000001
0.03                     -850.0000000000001       -850.0000000000001       0.5951596709671179       2.5944466837428894       4.222934663321427        4.222893670002718        6.223383498347115        6.223342589114997        7.7923513877776          7.792344566545441        9.794477525675717        9.794470663153055        11.063560840438136       11.063666962194757       13.065661411799677       13.06576770015046        14.284487312793996       14.284574448925389       16.286646873871987       16.28673398874931        17.653475368178945       17.653211198748732       19.65536314817206        19.65510043531491        21.144321088476847       21.14412184921223        23.14615044748692        23.145949892363696       24.37540171076978        24.376455564258716       26.376459799902378       26.377522112985268       27.114417318384028       27.116232582621162       29.112888117657953       29.114696488919567       29.999999999999996       29.999999999999996       32                       32                       850.0000000000001        850.0000000000001
0.04                     -850.0000000000001       -850.0000000000001       0.7091578394088146       2.70749843413203         4.488933581295682        4.488817859640948        6.486334481091495        6.486218492191304        8.334609856360867        8.334650013073835        10.335767590115989       10.335806455578926       11.651687793426438       11.651846230555321       13.653421662638673       13.65357963250202        14.789846421127704       14.789575800855436       16.79171740303677        16.791446615706523       18.23822986134899        18.237500169641343       20.23922765249931        20.238498226190355       21.75491774089262        21.75506363973021        23.75656828168783        23.756713671808846       24.737083917803083       24.739159733854276       26.735002088932095       26.73709654682368        27.197696318597846       27.20016080816815        29.193317180926538       29.195761912072182       29.999999999999996       29.999999999999996       32                       32                       850.0000000000001        850.0000000000001
0.05                     -850.0000000000001       -850.0000000000001       0.8408076131755841       2.8386778956050143       4.698952995232167        4.699020189776424        6.694077018205021        6.694141659937482        8.740789137054763        8.741015112743483        10.740285343362574       10.740510880456466       12.249099464275957       12.249032522064407       14.25097882270401        14.250911776972224       15.49274658664357        15.491867054264628       17.494459986104456       17.493581116817303       18.91896873726551        18.918051479775837       20.920157846447715       20.91923842009672        22.272201592916527       22.272968843797784       24.273268904781993       24.274044544162507       25.01464782018884        25.017575701530316       27.009070947769036       27.01202223770028        27.272882167787163       27.275830730578377       29.26592286358192        29.26883982342727        29.999999999999996       29.999999999999996       32                       32                       850.0000000000001        850.0000000000001
0.06                     -850.0000000000001       -850.0000000000001       1.0013834940424706       2.9992127970459936       4.861874552502579        4.862316171662036        6.856208218063748        6.8566454835290065       9.039867519729755        9.040195665619654        11.03643051563519        11.036766096725932       12.861959393503474       12.861372989572518       14.862724449974994       14.862144733540218       16.344616167061          16.343156289673203       18.3460163049708         18.344557611803676       19.68226735574772        19.681426308778654       21.683503936765067       21.68266519734088        22.731954534208416       22.733400825221747       24.730761252637485       24.732231938444357       25.210845907039364       25.214540883799256       27.201469654194117       27.205190201972542       27.323063272241185       27.32644766228129        29.314103924051825       29.317445199720638       29.999999999999996       29.999999999999996       32                       32                       850.0000000000001        850.0000000000001
0.07                     -850.0000000000001       -850.0000000000001       1.1959847093819473       3.193901098586405        4.998375412873162        4.999057857032158        6.992559671609804        6.993238785580619        9.291153261835285        9.29134036966993         11.28270357703313        11.282911528972958       13.483722281191518       13.482534218611828       15.479989243565598       15.47881875128122        17.260274159782604       17.25838437142717        19.26056592146218        19.258675789241696       20.50619420381396        20.505570534127497       22.50563131228676        22.50502174082585        23.18203579326014        23.184181531922498       25.175042212203184       25.177233771923163       25.338190087750466       25.342564674304484       27.323355978349014       27.327754654267224       27.332099875907506       27.335781237237445       29.321493438150064       29.325121991706787       29.999999999999996       29.999999999999996       32                       32                       850.0000000000001        850.0000000000001
0.08                     -850.0000000000001       -850.0000000000001       1.4660839367635738       3.464084706885409        5.175890885709559        5.176406077108583        7.170187156659927        7.17070257632992         9.549381955950086        9.54913799830353         11.534925078924587       11.534711819373385       14.08446811364672        14.082805906326147       16.073379004111008       16.071740675516267       18.149211483871476       18.147196399308196       20.147650867744662       20.145631606780512       21.334130179608472       21.33390050805691        23.330220357071475       23.330019413934803       23.643567121380638       23.646389085288263       25.627236071048465       25.63012460705915        25.446441047832856       25.451335315615474       27.424268879682366       27.429182121235474       27.320229597036782       27.32407848595959        29.30792484957098        29.311714237076043       29.999999999999996       29.999999999999996       32                       32                       850.0000000000001        850.0000000000001
0.09                     -850.0000000000001       -850.0000000000001       1.83580293900359         3.833914631546837        5.468815179821149        5.4688186121473645       7.463427516542307        7.463435202486133        9.87195356543773         9.871141783436686        11.853323002107508       11.852539999114287       14.634623532632192       14.632803117624773       16.616712544178924       16.614908581690234       18.9183885183321         18.916727403701874       20.915121887790935       20.913451347466356       22.082305237955566       22.08268216588862        24.075460192082137       24.075874787358348       24.115467053404206       24.118810411305564       26.08957869476188        26.092998549512714       25.606088620566812       25.611257969827797       27.576068729689208       27.581252217863916       27.33285900818612        27.336808731460177       29.31848692705165        29.32237190781393        29.999999999999996       29.999999999999996       32                       32                       850.0000000000001        850.0000000000001
0.1                      -850.0000000000001       -850.0000000000001       2.270624750813917        4.26888430232243         5.894630723673593        5.893917528542219        7.889602343699339        7.888898211329772        10.299464147984331       10.298002609746826       12.28012808011665        12.278683744474806       15.13434413604551        15.132572202426621       17.113839292079582       17.112063404573863       19.51896402158137        19.51800724730678        21.515141071025184       21.51416931682802        22.69464078585308        22.695821964552813       24.687034825404798       24.688254312738252       24.588621414762045       24.59242826877251        26.55686946272527        26.560749798003467       25.855279543463638       25.86062285698206        27.818309438674596       27.823663511571713       27.397463168363785       27.401524503550036       29.38045804665683        29.384447276397047       29.999999999999996       29.999999999999996       32                       32                       850.0000000000001        850.0000000000001
0.11                     -850.0000000000001       -850.0000000000001       2.70529239104238         4.703543917613452        6.402524343249883        6.401080322971367        8.397240140654027        8.395811888204484        10.829603233396464       10.827516479276976       12.811766825065384       12.809683064419149       15.61524551561511        15.613619258500643       17.596765372074614       17.595112791908726       19.979859975671992       19.979715908496395       21.976757999506663       21.976594940556172       23.179357714353795       23.181383146173513       25.172954315685825       25.175013620793834       25.0531563747314         25.057390796863704       27.019835569131104       27.02413279592738        26.17611976073278        26.18159887091312        28.133001648903054       28.13848930462327        27.503534840966307       27.50774037551852        29.482946774458433       29.487070543211093       29.999999999999996       29.999999999999996       32                       32                       850.0000000000001        850.0000000000001
0.12                     -850.0000000000001       -850.0000000000001       3.0968863925822827       5.094798795606137        6.920109427933215        6.918019906240966        8.913095775821754        8.91103164645131         11.424317270002234       11.421641305711775       13.407730207266768       13.40504625536108        16.115775441011372       16.114220520216907       18.101389029446555       18.099792031478945       20.377347467022503       20.37789725350378        22.375567705894863       22.37609680001259        23.58621612314159        23.589018259230365       25.58141891171236        25.58425064281063        25.497197617832697       25.501904950008          27.464340862575177       27.46910186335349        26.520676856804684       26.526461170925128       28.471334636645278       28.4771281222941         27.62426737343147        27.628784138268667       29.59889341692835        29.60331346818202        29.999999999999996       29.999999999999996       32                       32                       850.0000000000001        850.0000000000001
0.13                     -850.0000000000001       -850.0000000000001       3.4500075870565294       5.447369750155596        7.402022726055452        7.39947698060583         9.391876254311947        9.38936673216759         12.031779297686336       12.028652280625266       14.01466161484571        14.011519654651611       16.658929604023342       16.65736247661764        18.64799247862909        18.646375988955388       20.78887386386969        20.789898711572015       22.788341077643107       22.789346629585058       23.966349160607916       23.969798600961198       25.96228723332965        25.96576570605443        25.904146646280882       25.909470584046996       27.871463854244443       27.876841112390352       26.843761989761173       26.85018292963004        28.788005382211423       28.794436776510107       27.741245015689334       27.746273672124076       29.71025659856302        29.715165164853634       29.999999999999996       29.999999999999996       32                       32                       850.0000000000001        850.0000000000001
0.14                     -850.0000000000001       -850.0000000000001       3.7973795527476795       5.794245697806788        7.8431031660259665       7.840319654066553        9.829626633117302        9.82688846069176         12.609600859795824       12.606183367452862       14.590094445891342       14.586659448470073       17.242791304155862       17.241093943294107       19.233355453393088       19.231606736760384       21.26737514374154        21.26856589004663        23.267665174940397       23.268840505051354       24.359307013849307       24.36325662569655        26.354586687007117       26.358572036008006       26.259718073216533       26.26588581813168        28.22552064988305        28.231753571301013       27.113501967706895       27.12096763962535        29.051795742824307       29.059271824303853       27.84405966003446        27.849816449410127       29.80754141158301        29.813144542359616       29.999999999999996       29.999999999999996       32                       32                       850.0000000000001        850.0000000000001
0.15                     -850.0000000000001       -850.0000000000001       4.1686208625558345       6.165192899574354        8.261493198679503        8.258640481417338        10.245658012721583       10.242856333071773       13.141928960156134       13.138325762869886       15.118912649968424       15.11529481000615        17.84851401733088        17.84652836874054        19.838565277339978       19.83652793197109        21.827678705031836       21.82872172486963        23.82830014542663        23.829332171794995       24.791895493639714       24.796253229177584       26.784952422326285       26.789363460498567       26.566009272195686       26.57331812037481        28.52767579377194        28.53507512495224        27.310592098433222       27.31950416449068        29.24347828775869        29.25239476257282        27.919329856535786       27.925941410161986       29.878422891758348       29.884836152578146       29.999999999999996       29.999999999999996       32                       32                       850.0000000000001        850.0000000000001
0.16                     -850.0000000000001       -850.0000000000001       4.5801802614713045       6.5766516632415986       8.68096930540311         8.678178621482092        10.664075622756217       10.661337889934414       13.6387558109838         13.635055275832357       15.612001949294877       15.60829495088344        18.455214363193885       18.452847500893544       20.443239387354282       20.440821302523545       22.448600080600087       22.44932646628759        24.44918250871597        24.449901248441783       25.272231398581958       25.277011349026886       27.26152742283642        27.266390737094795       26.840617260983723       26.849302223009932       28.79485997023095        28.803670104006006       27.43031907776382        27.44080007128704        29.357491989831054       29.36795697577473        27.953871455167352       27.961208700851635       29.910473264045294       29.917568115041274       29.999999999999996       29.999999999999996       32                       32                       850.0000000000001        850.0000000000001
0.17                     -850.0000000000001       -850.0000000000001       5.03738872593227         7.03388304006795         9.123192664855996        9.120526709965773        11.1062189131194         11.103607259716856       14.123060074522979       14.1192315918982         16.09314960478676        16.089327465626802       19.049053869292933       19.04622341271661        21.034367702480587       21.03148582468748        23.09030185098473        23.090730464787917       25.090688748751635       25.09111109771004        25.784127296211274       25.789491163620703       27.768535813414175       27.77402251376128        27.100753027135756       27.11090781639498        29.044430097318767       29.05474460278036        27.489037988916014       27.500994538378585       29.409544839131083       29.421456869167653       27.948818738113893       27.956768415849517       29.90478071005051        29.912450665788416       29.999999999999996       29.999999999999996       32                       32                       850.0000000000001        850.0000000000001
0.18                     -850.0000000000001       -850.0000000000001       5.532976775244942        7.52954550707442         9.600965897724329        9.598387261535144        11.584306646537007       11.581783242936972       14.61869511200168        14.614714212120665       16.586723291047477       16.582761633732463       19.626063078022288       19.622820876308275       21.60901823473223        21.605722228153304       23.713335304666277       23.713662802869063       25.71358785028636        25.713909564151074       26.29327292907069        26.299404251575314       28.272393389085536       28.278689245043967       27.35395207831645        27.36554446557915        29.28531036748184        29.29709085987355        27.519367033373246       27.53259882340097        29.432417160367194       29.445569457666878       27.921151157826905       27.929546622557723       29.87753349583943        29.88561962715849        29.999999999999996       29.999999999999996       32                       32                       850.0000000000001        850.0000000000001
0.19                     -850.0000000000001       -850.0000000000001       6.045032052655526        8.041645121587308        10.112193247420874       10.109561315539656       12.095579318345743       12.093005410959671       15.14231386872014        15.138140671356393       17.1093512103081         17.10520210678801        20.190850142448134       20.18742558473366        22.172673040961094       22.16918760329028        24.292230885904562       24.292796338410973       26.292538993927923       26.293101092149605       26.76603330507166        26.773093937983727       28.74010621886337        28.747368460791268       27.599502692267826       27.61241996407542        29.518843687408488       29.531966128305815       27.553923615142125       27.56818203345657        29.459406284422016       29.473547430750543       27.892739530341483       27.90143745684692        29.84963397541241        29.857999668399774       29.999999999999996       29.999999999999996       32                       32                       850.0000000000001        850.0000000000001
0.2                      -850.0000000000001       -850.0000000000001       6.545638374728955        8.542181799552669        10.640483549972377       10.637644558482563       12.623048780700161       12.62027323810714        15.69953482029398        15.69514632704301        17.666028111586495       17.66165904648623        20.75388071394362        20.750533845949626       22.73607820882227        22.732659224255247       24.82198644481333        24.82313376347545        26.822470142050935       26.823620969714206       27.185988118991613       27.194094225961404       29.155441145773523       29.16377687142594        27.833628194426584       27.84771163538477        29.74269359097212        29.75698691469906        27.610284954594608       27.625353358014415       29.508709239641956       29.52362515994682        27.878573371152864       27.887501499127097       29.83540284038898        29.84397882698107        29.999999999999996       29.999999999999996       32                       32                       850.0000000000001        850.0000000000001
0.21                     -850.0000000000001       -850.0000000000001       7.01811180837808         9.01443438293927         11.166238433042412       11.16309367302334        13.146843915477714       13.143770235172875       16.283968417037755       16.279385466141314       18.249526549332373       18.244950819998614       21.326342792170507       21.3232961186818         23.309992302419396       23.30686073125326        25.315221584395676       25.317226416288268       27.31574033819955        27.31776137385153        27.554919963110677       27.5641676721399         29.519869170406913       29.529365653984605       28.05269136845019        28.06780832490554        29.953558646878452       29.968878141167625       27.69024789110234        27.70595049784506        29.58244060105462        29.59795818093598        27.88393796953169        27.893039744060633       29.839847662218446       29.84857879219881        29.999999999999996       29.999999999999996       32                       32                       850.0000000000001        850.0000000000001
0.22                     -850.0000000000001       -850.0000000000001       7.466549954605815        9.462547318339558        11.679326509274858       11.675845779907938       13.65707728188778        13.653675863298455       16.88137507299836        16.8766590841265         18.845136278197245       18.840410210368862       21.912852511386692       21.910275791348223       23.898288907882552       23.895615023868352       25.791545019970275       25.79460397111752        27.791660300804097       27.794754045762037       27.88590770610303        27.896376384574587       29.84591913438704        29.856649560618674       28.254045134139613       28.27009216450793        30.148328132386535       30.164558522200206       27.786481420955162       27.8026510897239         29.673408859804713       29.689363607387538       27.906896869039038       27.916127846454653       29.861071836141623       29.869915968665147       29.999999999999996       29.999999999999996       32                       32                       850.0000000000001        850.0000000000001
0.23                     -850.0000000000001       -850.0000000000001       7.909509857315575        9.90516912551321         12.183150517685755       12.179368290060175       14.157790442434349       14.154095550697          17.477124318901193       17.472337044978303       19.438427106936523       19.433609531928212       22.507778497387495       22.505781656627818       24.49478025862538        24.492674572636723       26.266682837605313       26.270918636981804       28.265816179267837       28.27010958914016        28.19735030534438        28.20908892944766        30.15158541140845        30.16359480940335        28.438830250668314       28.455737744531646       30.327230044984063       30.344294068475822       27.88758854876459        27.904123416915844       29.770117047579767       29.78640916421627        27.940461167723377       27.949801170483475       29.892421860020132       29.901360631434606       29.999999999999996       29.999999999999996       32                       32                       850.0000000000001        850.0000000000001
0.24                     -850.0000000000001       -850.0000000000001       8.366161100932704        10.361543661981381       12.688179895757195       12.684207317376188       14.660098927477987       14.656218899878361       18.06208423138355        18.057339502743318       20.02093192355211        20.016136733047663       23.098656543582635       23.09731961920989        25.086837623030437       25.085381305627134       26.746851303429317       26.752312837864935       28.744547120774197       28.750090285895883       28.508417329497508       28.521418476384312       30.456032305458777       30.469310663888777       28.614269239071614       28.631990513741663       30.496380321451273       30.514229420787306       27.98180984120419        27.998684636999997       29.8602624527351         29.876868407163677       27.9736520134292         27.983100828016244       29.923444967155344       29.932478843068708       29.999999999999996       29.999999999999996       32                       32                       850.0000000000001        850.0000000000001
0.25                     -850.0000000000001       -850.0000000000001       8.846427540185216        10.8416206509181         13.202629663401373       13.19860933076169        15.172557776909443       15.168630526178617       18.633446959401944       18.628924689739236       20.59046561793696        20.5858732756627         23.674183150393546       23.67359502439575        25.663249708016664       25.66253435534309        27.230568488634393       27.237230664948502       29.22666518820364        29.233430835317748       28.833514334612335       28.8477181377027         30.77399948665824        30.78848618009961        28.79081002770037        28.809328964869568       30.665270009158828       30.683890701641126       28.061172352065856       28.07842727941007        29.935079509736514       29.95204002803476        27.995982065367205       28.005563155636505       29.94412228311015        29.953274592829676       29.999999999999996       29.999999999999996       32                       32                       850.0000000000001        850.0000000000001