% Model:              jellyFish_twobar_fine_fsi_Inflow_demo_uf_freqinf2_example.mph
% Version:            COMSOL 6.0.0.405
% Date:               Jun 29 2023, 13:18
% Table:              Table 4 - Point Evaluation 3
% Time (s)               x-coordinate (mm), Point: 1x-coordinate (mm), Point: 2x-coordinate (mm), Point: 3x-coordinate (mm), Point: 4x-coordinate (mm), Point: 5x-coordinate (mm), Point: 6x-coordinate (mm), Point: 7x-coordinate (mm), Point: 8x-coordinate (mm), Point: 9x-coordinate (mm), Point: 10x-coordinate (mm), Point: 11x-coordinate (mm), Point: 12x-coordinate (mm), Point: 13x-coordinate (mm), Point: 14x-coordinate (mm), Point: 15x-coordinate (mm), Point: 16x-coordinate (mm), Point: 17x-coordinate (mm), Point: 18x-coordinate (mm), Point: 19x-coordinate (mm), Point: 20x-coordinate (mm), Point: 21x-coordinate (mm), Point: 22x-coordinate (mm), Point: 23x-coordinate (mm), Point: 24x-coordinate (mm), Point: 25x-coordinate (mm), Point: 26x-coordinate (mm), Point: 27x-coordinate (mm), Point: 28x-coordinate (mm), Point: 29x-coordinate (mm), Point: 30x-coordinate (mm), Point: 31x-coordinate (mm), Point: 32x-coordinate (mm), Point: 33x-coordinate (mm), Point: 34x-coordinate (mm), Point: 35x-coordinate (mm), Point: 36x-coordinate (mm), Point: 37x-coordinate (mm), Point: 38x-coordinate (mm), Point: 39x-coordinate (mm), Point: 40x-coordinate (mm), Point: 41x-coordinate (mm), Point: 42
0                        -850.0000000000001       -850.0000000000001       0.01734381398189562      2.018926048718217        3.331974504755847        3.331979929118658        5.332071242346587        5.332075411697227        6.666819482610589        6.6668186546950965       8.666825030791683        8.666824327881905        9.999947862974985        9.999947596901604        11.999948550576837       11.999948352253803       13.332970215833052       13.332970005093818       15.332970710237117       15.332970507603598       16.66697967162847        16.666979152785032       18.666980166404457       18.666979638681486       19.999985343591245       19.999985080987365       21.999985841426334       21.99998557677908        23.332989185632396       23.332989088516744       25.332989702272066       25.332989596115354       26.666992515816855       26.666992465612957       28.666993069182087       28.666993010062697       29.999999999999996       29.999999999999996       32                       32                       850.0000000000001        850.0000000000001
0.01                     -850.0000000000001       -850.0000000000001       0.894253335045842        2.9044169459153784       3.463652610442399        3.463628090552748        5.461520596131833        5.461496145209915        6.429323764597293        6.429338303614514        8.432166952722191        8.432181586640391        9.97177309859278         9.971746625317179        11.974779669176383       11.974753668841846       13.363102722827136       13.363058482708299       15.366643541465358       15.366599644833167       16.67393254212318        16.673891141242486       18.677414693297344       18.67737380373143        20.004342000216063       20.00431697757058        22.00784555309974        22.00782107038117        23.33485433496846        23.33487716221905        25.33838840870943        25.33841171615585        26.668736595202933       26.668605809655112       28.672264432308594       28.672134543348307       29.999999999999996       29.999999999999996       32                       32                       850.0000000000001        850.0000000000001
0.02                     -850.0000000000001       -850.0000000000001       1.913554358947785        3.9271996502721938       4.053423268002309        4.05339552507243         6.034964582815267        6.034935815044208        6.085566919594989        6.0855303609367875       8.08910946430885         8.089072731667967        9.566614602683723        9.566561581403654        11.56888330273017        11.568830568599727       13.374034415857446       13.373914294343292       15.379249099004193       15.379129089049338       16.737850304800094       16.73775013282023        18.743984375519368       18.743883960197824       19.97285346322944        19.972919010890614       21.978874595075574       21.97893957640504        23.307607679259025       23.30764583472303        25.31356654999812        25.31360468961166        26.67218563965772        26.671762821197984       28.678196132307498       28.677773653772963       29.999999999999996       29.999999999999996       32                       32                       850.0000000000001        850.0000000000001
0.03                     -850.0000000000001       -850.0000000000001       3.14543960266151         5.161594797656779        4.838585577685944        4.838473993324951        6.788127122243098        6.788013255531678        5.811213034770524        5.811125213088492        7.800576434045061        7.8004899038470965       8.86821353620089         8.868147686392517        10.868923005628014       10.868857520343413       13.177859249505273       13.177739922403548       15.176342332804131       15.176223126340261       16.918139456801264       16.9181266491309         18.92505710401339        18.9250438244236         20.010160027699424       20.010337827994356       22.016560550543083       22.016738003820812       23.224520327494304       23.22444009074762        25.231037574880375       25.23095793915577        26.645305988299217       26.644625868595593       28.651807928251888       28.651128976430787       29.999999999999996       29.999999999999996       32                       32                       850.0000000000001        850.0000000000001
0.04                     -850.0000000000001       -850.0000000000001       4.701476638207917        6.719665118436866        5.795997452600446        5.795648459939374        7.688349168192536        7.687990758622067        5.61077342453456         5.610493048063796        7.563353473770259        7.563081259855444        7.997984841047582        7.997885259572579        9.998137923789256        9.998036772936318        12.64623012759041        12.646235273240132       14.626427666634655       14.626427617776306       17.043715693592983       17.043956831495333       19.04627764358995        19.04651564973821        20.230114634856236       20.230439560392654       22.233083397029315       22.233405596329934       23.155097061566583       23.154848954775403       25.159213071649155       25.15896195518991        26.53414149195233        26.533174898543184       28.537872522192348       28.53690571446021        29.999999999999996       29.999999999999996       32                       32                       850.0000000000001        850.0000000000001
0.05                     -850.0000000000001       -850.0000000000001       6.3171323729697235       8.336456427826887        6.8825296021604485       6.881862625290011        8.711088992698347        8.710392232801084        5.71441235270352         5.713743915530229        7.614827179793445        7.614179605209971        7.25065154689764         7.250505337568751        9.25019666528431         9.250050117802962        11.77212995317933        11.772495174529329       13.739398776333996       13.739747513135447       16.764867567094896       16.76554765183327        18.752837820648104       18.753515285373055       20.477532273691658       20.477917531594137       22.477863094620623       22.478244791342973       23.298257228847444       23.297618777166647       25.297138418597743       25.296491691456133       26.471830747138085       26.47068002457578        28.471859889801944       28.47070556098988        29.999999999999996       29.999999999999996       32                       32                       850.0000000000001        850.0000000000001
0.06                     -850.0000000000001       -850.0000000000001       7.648078513903531        9.667544097230317        8.014480258621271        8.013612942533767        9.811901437536276        9.810977746858617        6.290888795942376        6.289746457131187        8.140970618112252        8.139849273489187        6.907958271266368        6.907547620022169        8.89890443277417         8.898510016356907        10.785919041197433       10.786509632144707       12.760617131376048       12.761184944727281       15.964554388029697       15.965459472142376       17.93525379149501        17.936167365623028       20.40757132145009        20.40768366095085        22.40455312302599        22.404677512809947       23.670966854811496       23.6699465947365         25.66869662888588        25.66767455991556        26.681805693266387       26.681014540174026       28.680128781649803       28.679340521543978       29.999999999999996       29.999999999999996       32                       32                       850.0000000000001        850.0000000000001
0.07                     -850.0000000000001       -850.0000000000001       8.755714196237449        10.774365777708162       9.135194582242962        9.134183149284187        10.930402383579732       10.929323099894795       7.217689792431385        7.2162724433925645       9.030306090342158        9.02890602700951         7.015421494816465        7.014786803723801        8.981281531467294        8.980683545688962        9.928489274507024        9.92894273695003         11.918570897751255       11.919012886729197       14.867930280130913       14.868431562475259       16.829481940200772       16.830004903247687       19.953853012125585       19.953435377538607       21.93467172598661        21.93427886147223        24.01105732848625        24.010278548218267       26.008763768065936       26.00798343820653        27.04769830877574        27.048011761317067       29.043090654865022       29.04341467761144        29.999999999999996       29.999999999999996       32                       32                       850.0000000000001        850.0000000000001
0.08                     -850.0000000000001       -850.0000000000001       9.791640236990366        11.80911111879441        10.23244227912638        10.231284061970662       12.034884787325765       12.033659559582192       8.305848213312506        8.304391337376082        10.095710115391462       10.094283621151035       7.4872203914072655       7.486611017632436        9.415389301568164        9.414827321436958        9.370685616099877        9.370857879026177        11.366794649997576       11.366965088703397       13.782175821959578       13.782030001153432       15.746179788669735       15.74605536885142        19.21540735130864        19.214850929540933       21.173808226441967       21.173247017021648       23.977671727191726       23.977960739106333       25.970038234098194       25.97030483746678        27.242415063958447       27.244043756660748       29.235862115989274       29.23749536682086        29.999999999999996       29.999999999999996       32                       32                       850.0000000000001        850.0000000000001
0.09                     -850.0000000000001       -850.0000000000001       10.86989982201904        12.887127033048735       11.362433595097407       11.361288190440785       13.170136440810667       13.168932688607828       9.411909865037126        9.410533590193035        11.185242292116587       11.183892147947704       8.147566551840962        8.146749161309877        10.039537412596063       10.0387533646116         9.17851532194276         9.178027205628752        11.1684445609965         11.167955848052173       12.925487675103893       12.924872235777688       14.902157738592017       14.901541207807792       18.276806390020074       18.27682604744307        20.228059477375297       20.228023801735116       23.38877976303911        23.390433121694972       25.37380150255201        25.375418456351003       27.067313756483546       27.06961547253087        29.064017769960657       29.066318696250036       29.999999999999996       29.999999999999996       32                       32                       850.0000000000001        850.0000000000001
0.1                      -850.0000000000001       -850.0000000000001       12.115208271409031       14.13307721183049        12.598381446559745       12.59765465670444        14.40131451409805        14.40054236269259        10.484921526359809       10.483781601263859       12.236105914772061       12.234941305077987       8.84371070748764         8.842291788606847        10.706663214384207       10.705227790779055       9.270324677866457        9.268766631882354        11.247592613657101       11.246040296197084       12.330357216417863       12.32950497234971        14.321286471190607       14.32041480647332        17.222686881709798       17.223710744669525       19.185259898197206       19.186203591327864       22.358472165317657       22.36113733740409        24.33665584134492        24.339301707060674       26.591435520700973       26.593339812806338       28.58857014227913        28.590493707504375       29.999999999999996       29.999999999999996       32                       32                       850.0000000000001        850.0000000000001
0.11                     -850.0000000000001       -850.0000000000001       13.555488031194947       15.573735454987302       13.925093414815512       13.924999134108365       15.709922083382226       15.709795025597966       11.544331792618486       11.543489367875466       13.267008354399426       13.266061060428918       9.57235644833315         9.570285546757843        11.409956655028818       11.40781596668428        9.548188738517444        9.545828840069394        11.507629547856887       11.505297382717675       11.916409544963063       11.915845174927288       13.913327004338457       13.912758976046002       16.12138574339323        16.12345345342461        18.09989731405753        18.10190954542293        21.11656247541162        21.119188223819          23.086237846010896       23.088902631190464       25.985022074022627       25.98539007278866        27.968372250818256       27.96879545553941        29.999999999999996       29.999999999999996       32                       32                       850.0000000000001        850.0000000000001
0.12                     -850.0000000000001       -850.0000000000001       14.985608042846371       17.003123070209313       15.207437100927374       15.207488737961048       16.972539217953035       16.972549432877774       12.641662946981508       12.640708275796642       14.343871088745438       14.342774256216963       10.448268497092272       10.445936727922575       12.260771265370426       12.258381569169238       9.989344601018704        9.987339716679484        11.92175801977135        11.919824131702025       11.606449040539717       11.606930387606305       13.595786054451768       13.596300409416052       15.06129675505795        15.063731548887334       17.04892040035702        17.05134504369476        19.888304460989296       19.889473248027407       21.84745159254311        21.84872253028846        25.362153248572305       25.360795166542108       27.316257724351743       27.314927752886966       29.999999999999996       29.999999999999996       32                       32                       850.0000000000001        850.0000000000001
0.13                     -850.0000000000001       -850.0000000000001       16.084099145799907       18.09948716865431        16.28232413934366        16.281610495565705       18.04798297397504        18.04719562384046        13.804770893823124       13.803205539844843       15.507970020887733       15.506341313878094       11.529228168347348       11.52752503183072        13.315400067367886       13.313748258029491       10.576460786206113       10.576195019042222       12.470598779764698       12.470441052094957       11.405555674935126       11.407245709609121       13.375769489904973       13.37748804290052        14.201942436604266       14.203598648835293       16.19122726479673        16.192890788801172       18.894123440798843       18.89332781023812        20.843897389452756       20.843209867519917       24.828873525472194       24.826934842413078       26.748823639929036       26.74678580198034        29.999999999999996       29.999999999999996       32                       32                       850.0000000000001        850.0000000000001
0.14                     -850.0000000000001       -850.0000000000001       16.78403639258731        18.79711475371809        17.103842206633573       17.102245646830237       18.890195619632696       18.888513519959787       14.930756340540887       14.928871774283653       16.651932677013715       16.650108802187276       12.683589606898375       12.683068882507277       14.448218833437473       14.447855378824519       11.28338446233351        11.284716182913366       13.137838749278837       13.139255003823324       11.433727752188148       11.43548693264567        13.381934040896496       13.383664526183045       13.721035429745578       13.721019438160367       15.709631461571956       15.709617676805204       18.30115803249383        18.298932897020194       20.245782673738287       20.243615850188046       24.502873539911          24.50133689006327        26.39810101521737        26.396329001342558       29.999999999999996       29.999999999999996       32                       32                       850.0000000000001        850.0000000000001
0.15                     -850.0000000000001       -850.0000000000001       17.308092030380273       19.320832002843854       17.774592663495238       17.773285642905563       19.58216162279111        19.580811084364296       15.866786030590795       15.86579679385178        17.607611121252333       17.6067347889593         13.703306884028487       13.703965270416417       15.46141625960112        15.462213719193562       12.065080900808637       12.066747643903632       13.895690042958554       13.897357187917546       11.78722456936946        11.787838228556117       13.720080958875034       13.720612141672365       13.716964135122224       13.715180254286079       15.70639671259186        15.704609546626637       18.172811088257816       18.169606962979117       20.118591662226798       20.115403586981447       24.43936067284337        24.437669469334594       26.328307180582375       26.326341617952284       29.999999999999996       29.999999999999996       32                       32                       850.0000000000001        850.0000000000001
0.16                     -850.0000000000001       -850.0000000000001       17.897117629587743       19.911854910940967       18.45914715669876        18.4592150215128         20.277675624826344       20.277776271584926       16.61108894381344        16.611911919664177       18.36077550959452        18.361686106180358       14.490757448389246       14.492381690047845       16.254803316982127       16.256452304860627       12.820745467594277       12.821881172479337       14.648970738299484       14.650009584360653       12.387467838251542       12.386613763828185       14.316404401719442       14.315447089839036       14.119985301254852       14.116786452595216       16.11280536209782        16.109599459845377       18.453846571131724       18.44926693348757        20.405850254889597       20.401298659152424       24.618197520682173       24.614686372568578       26.519186760491824       26.515433975630895       29.999999999999996       29.999999999999996       32                       32                       850.0000000000001        850.0000000000001
0.17                     -850.0000000000001       -850.0000000000001       18.72178593658284        20.739222396800475       19.313435955090252       19.315289172934456       21.130354085081322       21.132330015125483       17.29418169450152        17.297122824699493       19.033449550395343       19.036422294622845       15.072254425226554       15.074775686733897       16.840987751730815       16.843398336266592       13.44015674651933        13.440770690340033       15.277610310592893       15.278057913644865       13.033779891419178       13.03188665212825        14.967740229196965       14.965733463803293       14.733819075665064       14.729297944732274       16.731253583212336       16.726718636707776       19.011847699757325       19.004859254538175       20.970897223840726       20.963983273156515       24.963140404802058       24.956716393555716       26.887908153042083       26.881243742681896       29.999999999999996       29.999999999999996       32                       32                       850.0000000000001        850.0000000000001
0.18                     -850.0000000000001       -850.0000000000001       19.926987386634316       21.946474363741448       20.448302985302156       20.451742132983384       22.247608405855047       22.251254609071385       18.04260266409929        18.047298681971963       19.745388022259455       19.750049974770192       15.49982717060372        15.503039754197985       17.258169378505382       17.26116232448728        13.836200488719053       13.83658392733652        15.68261585821908        15.682797357557087       13.552373446034116       13.549828020107062       15.496187259459974       15.493504812385856       15.400301296517972       15.39392361306578        17.401290036882816       17.394897504676905       19.719788019382587       19.709423398293794       21.684587327566707       21.674317616876156       25.36772970715722        25.35886393281876        27.31923754966348        27.31008027988217        29.999999999999996       29.999999999999996       32                       32                       850.0000000000001        850.0000000000001
0.19                     -850.0000000000001       -850.0000000000001       21.581531455209557       23.602203745860578       21.87883626608812        21.88342417981485        23.639531523343692       23.64440588436112        18.914781463853796       18.920803252655077       20.55390970589767        20.559859381492988       15.826914053193454       15.831017151974388       17.54999482950121        17.553822113496654       13.970349223391143       13.97116649049711        15.819280161557245       15.819851971451342       13.89940647916146        13.89604136631276        15.856822372286492       15.85326462903669        16.107757599556432       16.09832660327847        18.108646749860373       18.099225949132475       20.484822236159484       20.471060640063627       22.456550743369366       22.442825845244233       25.718862171973353       25.709170470248747       27.691517382088          27.681517298875278       29.999999999999996       29.999999999999996       32                       32                       850.0000000000001        850.0000000000001
0.2                      -850.0000000000001       -850.0000000000001       23.500692227718865       25.521724341951156       23.467930128491396       23.472887819609664       25.174226854646992       25.17954023049331        19.89210755606708        19.898992596629803       21.45151747611194        21.458393413723268       16.15477256463406        16.16025221584178        17.822266257522166       17.827455775057317       13.993683957440394       13.995119140453642       15.840974807981738       15.842035950978882       14.231864552752626       14.226349709848511       16.202416204077938       16.196665727357104       16.897484820737507       16.884221743636623       18.89422696354439        18.881000532766656       21.202572363650255       21.18697940806868        23.182834136551723       23.167186977633506       25.952345546458726       25.94353727200161        27.935912455872632       27.926854808240495       29.999999999999996       29.999999999999996       32                       32                       850.0000000000001        850.0000000000001
0.21                     -850.0000000000001       -850.0000000000001       25.266703756573126       27.28799656587916        24.967662133737853       24.972461261961257       26.625665267836215       26.630883722864894       20.89331804336315        20.900829588273503       22.382717803265784       22.390353302509975       16.647836407786734       16.65451257591009        18.2712933896404         18.27759947684112        14.293664931146278       14.294470170291055       16.142914601529867       16.14316013322976        14.791114463800684       14.782335240954039       16.767578051219402       16.758573256874914       17.684787265981463       17.668879435479745       19.678631482900872       19.66274608980386        21.774071129941717       21.758778539678488       23.760567829577614       23.74519028769966        26.111179765045264       26.10386656780624        28.09905796552398        28.091577088504206       29.999999999999996       29.999999999999996       32                       32                       850.0000000000001        850.0000000000001
0.22                     -850.0000000000001       -850.0000000000001       26.6712920235326         28.69393296402059        26.259361857308647       26.264060770579427       27.891012706236808       27.896158352607856       21.888798117888854       21.89632814334681        23.339568151030605       23.347212324807014       17.417885836454026       17.423934654598018       19.03042695272264        19.03594136780205        15.049876224300913       15.048322822201806       16.904069009803635       16.901866797034625       15.594191219524774       15.582674506909422       17.571124480438005       17.559404724754533       18.371954601794265       18.35538509958171        20.367437488865825       20.350870266553056       22.19238568719849        22.178473716196677       24.184092051864432       24.170106791672747       26.25129167814863        26.2452210106219         28.243263986126266       28.237085382332342       29.999999999999996       29.999999999999996       32                       32                       850.0000000000001        850.0000000000001
0.23                     -850.0000000000001       -850.0000000000001       27.90115083121347        29.92544521764408        27.47690622766808        27.481861568623092       29.098475494659937       29.103860946139122       22.949972305404515       22.956976817003113       24.382998576198084       24.38991951941189        18.40286447926736        18.406749505349215       20.018788504484313       20.021972846223147       16.05041673999332        16.045906211716535       17.905703680715032       17.900562670698957       16.464773071382396       16.451645994235264       18.43871350783762        18.42541147140294        18.955973545738907       18.939853373396495       20.954171661104443       20.938053306808555       22.509786046063947       22.497329058633635       24.506458513846272       24.493949540543383       26.370957703108306       26.36577501924706        28.367436939066625       28.36218455507053        29.999999999999996       29.999999999999996       32                       32                       850.0000000000001        850.0000000000001
0.24                     -850.0000000000001       -850.0000000000001       29.22978448331067        31.25499876600231        28.79853582211728        28.803675716243717       30.412644918652042       30.418156231790007       24.15006837336423        24.156017675480193       25.565051700592644       25.570646120620363       19.493223843865046       19.49426867899784        21.1021886070829         21.102396645035327       17.05184314713602        17.044433048986484       18.899872165983176       18.891894487463315       17.258688561128064       17.244556836075823       19.22631060444452        19.21204626018563        19.45406582193226        19.438731891714472       21.452516699690175       21.43719673860896        22.76207504576031        22.75099018650232        24.761703230148672       24.750587813479523       26.456564141806513       26.45217538096265        28.455754624264806       28.451321184965245       29.999999999999996       29.999999999999996       32                       32                       850.0000000000001        850.0000000000001
0.25                     -850.0000000000001       -850.0000000000001       30.74269468984077        32.76807776151838        30.26733988983314        30.272200300865634       31.87129228333202        31.876437155217513       25.507109163742534       25.511604656192837       26.90012395641224        26.90403749886928        20.668795664605508       20.66712090029179        22.25294179864927        22.250330724821055       17.989730082995035       17.97985897780827        19.819752702664147       19.809371561102118       17.936330939699797       17.92150795948922        19.89470057485879        19.87980000358562        19.873879493587268       19.859536307932736       21.86965721707441        21.855348985227415       22.958340187434814       22.948738003699585       24.958310254505232       24.948699024685318       26.503609816282523       26.500084413403652       28.503106299055936       28.499553337711856       29.999999999999996       29.999999999999996       32                       32                       850.0000000000001        850.0000000000001