% Model:              Untitled.mph
% Version:            COMSOL 6.0.0.405
% Date:               Jul 2 2023, 16:45
% Table:              Table 12 - Point Evaluation 3
% Time (s)               x-coordinate (mm), Point: 1x-coordinate (mm), Point: 2x-coordinate (mm), Point: 3x-coordinate (mm), Point: 4x-coordinate (mm), Point: 5x-coordinate (mm), Point: 6x-coordinate (mm), Point: 7x-coordinate (mm), Point: 8x-coordinate (mm), Point: 9x-coordinate (mm), Point: 10x-coordinate (mm), Point: 11x-coordinate (mm), Point: 12x-coordinate (mm), Point: 13x-coordinate (mm), Point: 14x-coordinate (mm), Point: 15x-coordinate (mm), Point: 16x-coordinate (mm), Point: 17x-coordinate (mm), Point: 18x-coordinate (mm), Point: 19x-coordinate (mm), Point: 20x-coordinate (mm), Point: 21x-coordinate (mm), Point: 22x-coordinate (mm), Point: 23x-coordinate (mm), Point: 24x-coordinate (mm), Point: 25x-coordinate (mm), Point: 26x-coordinate (mm), Point: 27x-coordinate (mm), Point: 28x-coordinate (mm), Point: 29x-coordinate (mm), Point: 30x-coordinate (mm), Point: 31x-coordinate (mm), Point: 32x-coordinate (mm), Point: 33x-coordinate (mm), Point: 34x-coordinate (mm), Point: 35x-coordinate (mm), Point: 36x-coordinate (mm), Point: 37x-coordinate (mm), Point: 38x-coordinate (mm), Point: 39x-coordinate (mm), Point: 40x-coordinate (mm), Point: 41x-coordinate (mm), Point: 42
0                        -850.0000000000001       -850.0000000000001       0.07372572202416666      2.08044112530637         3.333060333089604        3.333060333089604        5.33368786327658         5.33368786327658         6.667017466841738        6.667017466841738        8.667076664653372        8.667076664653372        10.00000116844718        10.00000116844718        12.000005284443942       12.000005284443942       13.33300007030274        13.33300007030274        15.333000332288643       15.333000332288643       16.667000004111863       16.667000004111863       18.667000019957772       18.667000019957772       20.000000000234454       20.000000000234454       22.000000001161887       22.000000001161887       23.333000000013108       23.333000000013108       25.33300000006613        25.33300000006613        26.66700000000072        26.66700000000072        28.6670000000037         28.6670000000037         29.999999999999996       29.999999999999996       32                       32                       850.0000000000001        850.0000000000001
0.01                     -850.0000000000001       -850.0000000000001       7.409795903279781        9.443241307508762        6.794274271004985        6.794171245878477        8.536106658746645        8.535991577476862        6.018772986998401        6.018564798155762        7.998554852075651        7.998346717923174        9.569977977071174        9.569846507726279        11.561618173470427       11.561484857057478       13.609015200880904       13.608913393735106       15.615612546186647       15.615511688982327       16.807048891281784       16.806860756734114       18.81560962023815        18.815422102580467       20.037707949821574       20.03771608514637        22.047722349161788       22.047729674466908       23.378045211040593       23.378220953912592       25.38919974050726        25.389374966685967       26.709492838450764       26.708517553417895       28.72133202287776        28.72035730861368        29.999999999999996       29.999999999999996       32                       32                       850.0000000000001        850.0000000000001
0.02                     -850.0000000000001       -850.0000000000001       18.18801734268789        20.22185095149085        16.553948234697717       16.553751777727776       18.007580618349056       18.007405789458915       11.570428610582585       11.570643056143227       13.115483623323204       13.115761287340499       9.385347114722979        9.38587558205739         11.30064267513852        11.301167534292697       11.887878422843025       11.888161025232336       13.8708776743156         13.871163335518881       16.364597992768296       16.364796383662714       18.344112519895674       18.344311541545263       20.175327000146112       20.175479194013356       22.16301369027073        22.163167698378356       23.331454673332704       23.33178688874679        25.31795377688616        25.318290275858573       26.593618975436442       26.59455537724755        28.58025066765337        28.58119034186578        29.999999999999996       29.999999999999996       32                       32                       850.0000000000001        850.0000000000001
0.03                     -850.0000000000001       -850.0000000000001       28.83184637819124        30.858378427303975       27.698492512312487       27.69919544220973        29.255084265243063       29.255832480314695       23.072572389028018       23.073338015989854       24.50285977604173        24.503590309713864       18.333158505578364       18.33355165435302        19.87188278267969        19.872225714799          15.248669603304476       15.248701233218641       17.046979487940767       17.046996985947327       15.51782284946522        15.51789355450355        17.491466518170306       17.491544785261997       18.86889049819879        18.869463867360388       20.851680745935713       20.852246311437007       23.132702489366164       23.133748976685464       25.11762462229479        25.118666827333517       26.786410204815436       26.78761358699605        28.775918753548865       28.777123574972034       29.999999999999996       29.999999999999996       32                       32                       850.0000000000001        850.0000000000001
0.04                     -850.0000000000001       -850.0000000000001       40.49342739307464        42.517253746120424       39.45276359796501        39.45297341453197        41.033356423950266       41.033582135317765       35.08458285646342        35.08485408689236        36.53867592796751        36.5389411848533         30.27173428075578        30.27193222416271        31.722713163746114       31.722899894907204       25.660705198943553       25.660909913066487       27.18275971127234        27.182980172625903       22.02972841262249        22.0302290960392         23.723577925544795       23.72411381678119        20.563673736142363       20.56455792252071        22.455752327882365       22.456638295291032       22.02915746949816        22.029823575517735       24.0101727733229         24.010827070008204       25.80612923520021        25.806476230390526       27.781795482931855       27.782121369373318       29.999999999999996       29.999999999999996       32                       32                       850.0000000000001        850.0000000000001
0.05                     -850.0000000000001       -850.0000000000001       52.590419898050314       54.616960711716025       51.57480390175551        51.5743365615213         53.16198195573324        53.16148403073008        47.285196163337204       47.284728512811604       48.765431376651975       48.765015713694396       42.683981593709376       42.684160496900695       44.16330659903163        44.16360105814575        38.08645326089063        38.08744785812515        39.56591270952368        39.56698122121756        33.55139252961506        33.55249862350626        35.06369081967586        35.0647356728307         29.61508673315447        29.615252432660085       31.26003436056278        31.260080749104365       27.395361444786808       27.394673179596413       29.23327509217274        29.232595774651315       27.637332317491957       27.63773368408172        29.592380776168714       29.592845684103555       29.999999999999996       29.999999999999996       32                       32                       850.0000000000001        850.0000000000001
0.06                     -850.0000000000001       -850.0000000000001       64.57607838487861        66.5855444921495         63.66661544097375        63.66567625026811        65.27313246022865        65.27212103602105        59.68626683389047        59.68508260931829        61.16272404659345        61.16151076757408        55.088409967065346       55.087215058597714       56.53674206306695        56.53550498161222        50.46713713877002        50.46588509255502        51.93230554393251        51.93100168454423        46.03996210653139        46.038822044499106       47.52568704148266        47.52452005234259        41.71391793866049        41.71312926136757        43.19303474706822        43.19218610819039        37.25270657891845        37.25123535302397        38.703788641589206       38.70193455416476        32.647807318949795       32.64193663168017        34.119735376427094       34.11305657507507        29.999999999999996       29.999999999999996       32                       32                       850.0000000000001        850.0000000000001
0.07                     -850.0000000000001       -850.0000000000001       67.60931014323182        69.5725015785601         67.49216622005851        67.49017863123906        69.20915607917216        69.2070257953517         65.56748598247694        65.56327860056604        67.21563233255286        67.2112572557147         62.765505141063976       62.75884292006284        64.32360258657323        64.3167092568052         58.96625611202416        58.95641588775903        60.411693107960055       60.40145355654126        54.15992221209189        54.14561552324551        55.4840887324931         55.46912301068489        48.47238245483062        48.45234701361842        49.68584927291119        49.66493957312798        42.10844092231258        42.08223955126307        43.23568321873096        43.20857176024862        35.30375323872118        35.2724740457564         36.401339187808055       36.370010147165885       29.999999999999996       29.999999999999996       32                       32                       850.0000000000001        850.0000000000001
0.08                     -850.0000000000001       -850.0000000000001       64.05741021270988        66.048932509487          63.83035290285714        63.82686521789452        65.55822093811119        65.55442076326268        61.60672625371949        61.59911584531033        63.271505624004924       63.26347019526899        58.735567579107254       58.72305445356664        60.335327419298785       60.3222719262749         55.15852440580499        55.14072864125574        56.67724581351334        56.6588465004358         50.830072192587295       50.80744247257243        52.25779091382687        52.23461039769647        45.78442570396675        45.758242916250424       47.12186303938618        47.095308699884235       40.129710708990466       40.10180503949913        41.39077717270905        41.3627929303687         34.07674071077233        34.049629929474285       35.33367150188877        35.30728493139766        29.999999999999996       29.999999999999996       32                       32                       850.0000000000001        850.0000000000001
0.09                     -850.0000000000001       -850.0000000000001       59.3327818828098         61.35664889758836        58.492730975947595       58.48428108697695        60.12124155481769        60.111959329782785       54.701155859848704       54.685997555923464       56.25444699837082        56.23860770719077        50.755090827201016       50.73512189009523        52.32033962518813        52.299937562743814       46.89654241472645        46.87405273586638        48.46545069108687        48.442829621827435       43.01593195303755        42.99377372377096        44.574754750466674       44.55283385273142        39.011701733400265       38.99330105501055        40.552257282329236       40.53453820707427        34.8766956147708         34.86538006571625        36.41227078457169        36.40192031441826        30.973628221496735       30.969869023852816       32.616465493778406       32.61317523920187        29.999999999999996       29.999999999999996       32                       32                       850.0000000000001        850.0000000000001
0.1                      -850.0000000000001       -850.0000000000001       55.79494728711389        57.823681272201455       54.42099672360827        54.41046411872519        55.920577807852894       55.908905437338035       49.31874675947703        49.30124088040745        50.683686700109234       50.66547967033815        44.04162785210546        44.02112381586116        45.46844830143068        45.44786581481508        39.39660609689562        39.37758752226949        40.92412583357808        40.905597714452156       35.54416357967374        35.531325011421075       37.16080952830043        37.148881254601626       32.46738926493015        32.46448612490191        34.162141125528166       34.16019351213667        30.173992314312343       30.180150870061144       31.94286156327719        31.94955518286524        28.971486262501706       28.97936412198634        30.84347412570015        30.85101165266016        29.999999999999996       29.999999999999996       32                       32                       850.0000000000001        850.0000000000001
0.11                     -850.0000000000001       -850.0000000000001       51.5116708977268         53.54148784328114        50.102834681141125       50.09650724547013        51.589758071439          51.58277259270865        44.827168890080515       44.81737085027982        46.15294718983851        46.14293345792969        39.24432471990935        39.234781493727006       40.62938460327149        40.62020215936026        34.368326536699364       34.362888944172          35.89185084440251        35.887126648695016       30.732946743572214       30.73403004696182        32.41263394658702        32.41436445830674        28.58762263600991        28.594540768922123       30.393755372406197       30.40098667338426        27.83381536630775        27.842482852278057       29.719893669253125       29.72849622746381        28.16568985965948        28.171483204471315       30.101314168233383       30.10693354475527        29.999999999999996       29.999999999999996       32                       32                       850.0000000000001        850.0000000000001
0.12                     -850.0000000000001       -850.0000000000001       48.66268818401053        50.69539268761766        47.19890415903383        47.200586643937534       48.67138210231255        48.67331012552691        41.82253615758699        41.826256205751164       43.15054970249986        43.1546510752678         36.34525874717778        36.351772913098344       37.768318497054956       37.77526042725979        31.804540856890455       31.81403508707205        33.383358716326086       33.39314117370769        28.651889046633954       28.663068568103377       30.386043923557594       30.397263801642787       27.049678367275693       27.06013247660867        28.90032317571736        28.910649942275658       26.829589012543476       26.83749468558792        28.749416093989975       28.757187113429843       27.72386649468118        27.72863935436591        29.687224260122274       29.691883408596485       29.999999999999996       29.999999999999996       32                       32                       850.0000000000001        850.0000000000001
0.13                     -850.0000000000001       -850.0000000000001       48.25736306288276        50.29136952318548        46.69636268307702        46.705529690788794       48.14404771930813        48.15430316810211        41.14247885165566        41.158193447669944       42.45328272055542        42.46979472438893        35.649687965567594       35.66934807796548        37.090640018701826       37.11060659381511        31.32456840185806        31.34497427164821        32.93596735740069        32.956245270875044       28.443984819104262       28.461872802456718       30.19719421832855        30.214758834056372       26.970075736293175       26.98367915567815        28.82397933642722        28.83729257637372        26.750888291721655       26.760225090843875       28.671185217194203       28.680331748297185       27.669928145007567       27.67513128846882        29.63582119762798        29.640889124762897       29.999999999999996       29.999999999999996       32                       32                       850.0000000000001        850.0000000000001
0.14                     -850.0000000000001       -850.0000000000001       49.98844783174578        52.02200365387608        48.43475903770071        48.44733383317734        49.884764235354226       49.89879796339713        42.893997808260615       42.91511086962659        44.203140274391984       44.22522589101438        37.36872793003152        37.394330168043034       38.80012574575207        38.826021629506826       32.95238258184462        32.97831836872379        34.549370648531735       34.57510507261868        29.916941779033003       29.939723970504257       31.651806347758605       31.67419667279278        28.191772476861498       28.209603299657324       30.02292910504702        30.04038970495982        27.58270857622213        27.595242338764923       29.478072504807283       29.490315077268757       27.997738176320404       28.004588973984635       29.945837728604385       29.952448921340395       29.999999999999996       29.999999999999996       32                       32                       850.0000000000001        850.0000000000001
0.15                     -850.0000000000001       -850.0000000000001       53.42286778281264        55.45425243710875        51.98824502120672        51.99907163354035        53.47069111466943        53.48276442336806        46.70894730233784        46.72769499403751        48.05025643028128        48.069953753633136       41.303221994748085       41.32702715766019        42.72780729126942        42.75208104900297        36.70861277085787        36.73448651420805        38.26315206799368        38.28906736072732        33.194455355500715       33.21941691600938        34.86921525244902        34.89394044133112        30.752961623318484       30.77455764076433        32.51860592656186        32.53983140161545        29.236984031482358       29.253386357500077       31.06838841365825        31.084360073982253       28.639909522663725       28.64901674530378        30.54247956592395        30.551119383696886       29.999999999999996       29.999999999999996       32                       32                       850.0000000000001        850.0000000000001
0.16                     -850.0000000000001       -850.0000000000001       57.6721889179881         59.698536984072184       56.49439586932461        56.500442142148          58.0432734648316         58.050017457679914       51.826127950515435       51.837609388369984       53.247655574091446       53.259844723928          46.85839051564814        46.87468561351107        48.30720180469201        48.32406794874376        42.24683332690121        42.26681130449462        43.75897579733742        43.779286183963144       38.182835506288455       38.204552592392986       39.76523549540419        39.786987828595606       34.72181662990553        34.74267713608236        36.36879760774604        36.3893953983456         31.8568766576681         31.87382957768449        33.56372681575344        33.58013869874263        29.73374770685597        29.743065477391298       31.534894840774207       31.54344709611574        29.999999999999996       29.999999999999996       32                       32                       850.0000000000001        850.0000000000001
0.17                     -850.0000000000001       -850.0000000000001       61.25067231864396        63.26693941992206        60.482617956652646       60.484196104751156       62.12356645571948        62.12533081151355        56.83104306954608        56.834673490294705       58.371384055955005       58.37529262164824        52.684839024187575       52.691007783126814       54.19545971049096        54.201947077400916       48.36351834790746        48.372189024654844       49.86054745617803        49.86947983170088        43.97557697099329        43.98585425384137        45.470474523769745       45.48083425238154        39.61004946606354        39.62011376037818        41.11318867531155        41.123055090836836       35.34925340496903        35.35659249937074        36.87254018602719        36.879350033098405       31.40334635070212        31.404852055948396       33.013495275474426       33.014219064429696       29.999999999999996       29.999999999999996       32                       32                       850.0000000000001        850.0000000000001
0.18                     -850.0000000000001       -850.0000000000001       62.87682209082828        64.88087336909932        62.4600753869544         62.45897007754549        64.16430648300026        64.16310135177878        59.72103418609268        59.718737587309775       61.35055249117349        61.348138991404774       56.39523664442412        56.3917284211926         57.96983200252902        57.96619578204777        52.54788955299662        52.543053604035926       54.06249537448863        54.05749739456968        48.19068122981691        48.18425443503534        49.64549152881131        49.63884272039659        43.38429886400975        43.375799139756516       44.78700294033931        44.778189836328835       38.23982843459166        38.22866732472252        39.606690452246475       39.595136259220965       32.95813975640409        32.944258926203936       34.3642547953155         34.35026897705753        29.999999999999996       29.999999999999996       32                       32                       850.0000000000001        850.0000000000001
0.19                     -850.0000000000001       -850.0000000000001       62.58095532744456        64.58419463790558        62.22572941660652        62.222275267828145       63.94120145433159        63.93743470289487        59.663912252317274       59.6567635361508         61.314626412592595       61.307112022032115       56.57017889503133        56.55919047677446        58.17018123857874        58.158794282850714       52.94854557954187        52.93380998068332        54.48626516366618        54.47112895102178        48.749973974634585       48.73196703061594        50.217333677866314       50.1989823228884         43.983984523551875       43.96363555688198        45.38101123178075        45.36045109978963        38.72802526555723        38.70668245171097        40.06764360809167        40.04631234485433        33.20782692879637        33.18760786010516        34.57578967905567        34.55617920406578        29.999999999999996       29.999999999999996       32                       32                       850.0000000000001        850.0000000000001
0.2                      -850.0000000000001       -850.0000000000001       61.39986559793806        63.412426570972386       60.866983904008244       60.861325441559295       62.55520426567847        62.54902070539092        57.84284869436679        57.83197392607952        59.460443486216164       59.44905161013709        54.40236406510924        54.386995415364275       55.987290206551634       55.971478835604856       50.64663211355384        50.6278736173031         52.19254132985119        52.17347692596623        46.52814243013501        46.507598371201745       48.02847357638787        48.007838979002585       42.03100853537219        42.0107382494566         43.484789687582776       43.46471877554391        37.20058419145774        37.18288167133298        38.62038261131761        38.60318948118292        32.29949949298592        32.286218437012096       33.78389039839778        33.77125187051026        29.999999999999996       29.999999999999996       32                       32                       850.0000000000001        850.0000000000001
0.21                     -850.0000000000001       -850.0000000000001       60.2807527921994         62.300780113052745       59.46836466298365        59.462086801177705       61.101545238553825       61.09465645567689        55.72457493027945        55.71328743268792        57.26740514346265        57.255623198593184       51.643111607142686       51.628480458270424       53.17729027462137        53.1623804472504         47.52878675091064        47.51280899360312        49.0605480965276         49.044551746976786       43.38752354856001        43.37244583366935        44.91500688315905        44.90018379285369        39.21050778641468        39.19847917598991        40.734780351098415       40.72323457156893        35.0377208572075         35.0301774420424         36.572086903103624       36.5650967129979         31.157885961733278       31.15427514681731        32.79024749053248        32.786830874108475       29.999999999999996       29.999999999999996       32                       32                       850.0000000000001        850.0000000000001
0.22                     -850.0000000000001       -850.0000000000001       59.17733609648296        61.20075489418661        58.16229203907366        58.158301828222086       59.749750087950595       59.745365250005605       53.89088411009369        53.88416354628652        55.364703948908854       55.35774905566266        49.27606698039917        49.26832673792806        50.75705149843607        50.74930776979257        44.82341810266233        44.81643963780285        46.33541855512798        46.32865272268413        40.65026663850258        40.6456551449997         42.199535672288796       42.195277262975935       36.79446725331808        36.793123275355455       38.380794283847706       38.37982948644956        33.2793122882283         33.281135712698706       34.909453537964446       34.911527539620785       30.355498612942327       30.357922653192684       32.089126561215345       32.09133241485054        29.999999999999996       29.999999999999996       32                       32                       850.0000000000001        850.0000000000001
0.23                     -850.0000000000001       -850.0000000000001       58.16370262536301        60.18918206925797        57.05618212363355        57.05672805050835        58.62180125991543        58.62242631143716        52.553032405551534       52.554414461141775       53.997338842534674       53.99887154539497        47.73071804057248        47.73345368699698        49.192871155261095       49.19582368815792        43.17854572303285        43.18307694086894        44.69063521034981        44.69540080892921        39.06953519287384        39.075876310493776       40.64029919311771        40.646820781335244       35.46733030483892        35.47487486715682        37.09466374253467        37.10227253680092        32.37513626055756        32.38261287664686        34.0560694484308         34.06343987762148        29.95096746184715        29.9559341872781         31.728695252209235       31.733284860976966       29.999999999999996       29.999999999999996       32                       32                       850.0000000000001        850.0000000000001
0.24                     -850.0000000000001       -850.0000000000001       57.7951732039837         59.82176827550847        56.65316054980816        56.65807600266334        58.21104801441663        58.21650403628489        52.08001273470166        52.08896959655025        53.51960898273505        53.529045876942135       47.251491231185135       47.2635506021212         48.72003082619164        48.732417223314435       42.76781574549182        42.78180819490067        44.29282052096882        44.30695445104673        38.76078110922028        38.775269818039156       40.344389610008214       40.35883933832389        35.247351956833676       35.26085805734353        36.88350704930234        36.896830186297834       32.21075370727866        32.221921161491224       33.897889877983374       33.90874979435117        29.84922246831038        29.85589510393632        31.63623300541883        31.642383172543248       29.999999999999996       29.999999999999996       32                       32                       850.0000000000001        850.0000000000001
0.25                     -850.0000000000001       -850.0000000000001       58.25525694099739        60.28124841603479        57.1445257494036         57.15161848104691        58.7104999034039         58.718353734382596       52.65996130571658        52.67268608362611        54.112775141141015       54.12612884431574        47.931553398566365       47.94819974591653        49.41156463764355        49.4285802689675         43.52143441159247        43.54004698210622        45.05091358885725        45.06962463378698        39.516786362101975       39.53533166581505        41.09384260011356        41.11225856828157        35.90173962447671        35.918406550667555       37.52029272600119        37.53666049762254        32.664488274148255       32.677684545752584       34.327316477483365       34.340062455158154       30.04263016464364        30.049949268939315       31.807990019079732       31.814641770613257       29.999999999999996       29.999999999999996       32                       32                       850.0000000000001        850.0000000000001