% Model:              Untitled.mph
% Version:            COMSOL 6.0.0.405
% Date:               Jul 2 2023, 20:59
% Table:              Table 20 - Point Evaluation 3
% Time (s)               x-coordinate (mm), Point: 1x-coordinate (mm), Point: 2x-coordinate (mm), Point: 3x-coordinate (mm), Point: 4x-coordinate (mm), Point: 5x-coordinate (mm), Point: 6x-coordinate (mm), Point: 7x-coordinate (mm), Point: 8x-coordinate (mm), Point: 9x-coordinate (mm), Point: 10x-coordinate (mm), Point: 11x-coordinate (mm), Point: 12x-coordinate (mm), Point: 13x-coordinate (mm), Point: 14x-coordinate (mm), Point: 15x-coordinate (mm), Point: 16x-coordinate (mm), Point: 17x-coordinate (mm), Point: 18x-coordinate (mm), Point: 19x-coordinate (mm), Point: 20x-coordinate (mm), Point: 21x-coordinate (mm), Point: 22x-coordinate (mm), Point: 23x-coordinate (mm), Point: 24x-coordinate (mm), Point: 25x-coordinate (mm), Point: 26x-coordinate (mm), Point: 27x-coordinate (mm), Point: 28x-coordinate (mm), Point: 29x-coordinate (mm), Point: 30x-coordinate (mm), Point: 31x-coordinate (mm), Point: 32x-coordinate (mm), Point: 33x-coordinate (mm), Point: 34x-coordinate (mm), Point: 35x-coordinate (mm), Point: 36x-coordinate (mm), Point: 37x-coordinate (mm), Point: 38x-coordinate (mm), Point: 39x-coordinate (mm), Point: 40x-coordinate (mm), Point: 41x-coordinate (mm), Point: 42
0                        -850.0000000000001       -850.0000000000001       0                        2                        3.3329999999999993       3.3329999999999993       5.333                    5.333                    6.667000000000001        6.667000000000001        8.667                    8.667                    10                       10                       12                       12                       13.333000000000002       13.333000000000002       15.333000000000002       15.333000000000002       16.667                   16.667                   18.667                   18.667                   20                       20                       22                       22                       23.333                   23.333                   25.333000000000002       25.333000000000002       26.666999999999998       26.666999999999998       28.667                   28.667                   29.999999999999996       29.999999999999996       32                       32                       850.0000000000001        850.0000000000001
0.01                     -850.0000000000001       -850.0000000000001       0.03936021884500761      2.0393031997867537       3.377511502151276        3.3775234388919735       5.377530462713305        5.3775424215636685       6.7122366722782285       6.71226056166621         8.712247166173846        8.71227109701214         10.043960998842888       10.043991864043068       12.043959934401785       12.043990866163245       13.376156214208025       13.376188713329325       15.376147850814833       15.376180442356684       16.709659072618113       16.709688504880997       18.709646847084908       18.709676402321616       20.04316370589321        20.043181093775228       22.043148814421464       22.043166378282553       23.37817207467822        23.378183067942405       25.378146689902408       25.378157878596742       26.700614683939783       26.700664618724076       28.700609547176207       28.700660201187176       29.999999999999996       29.999999999999996       32                       32                       850.0000000000001        850.0000000000001
0.02                     -850.0000000000001       -850.0000000000001       0.16126387145377727      2.1613098894633587       3.5448463871858085       3.544870572135434        5.54547331865701         5.545497452739802        6.899103941434805        6.899145577320353        8.899826187992607        8.899867779302184        10.21978812449047        10.219831424641647       12.22049865695795        12.22054189095368        13.544794370488969       13.544816624929123       15.545509824823128       15.545531980332655       16.87638537758291        16.87633756653077        18.87711346800135        18.877065612476652       20.225149977554178       20.225013476966236       22.22583918109246        22.225702681105854       23.56597814137981        23.56597351076169        25.566662998386303       25.566658159580356       26.794159323308524       26.79444329949572        28.79476188821844        28.79504638350333        29.999999999999996       29.999999999999996       32                       32                       850.0000000000001        850.0000000000001
0.03                     -850.0000000000001       -850.0000000000001       0.23015461455520383      2.2299027988059925       3.688875283089319        3.688834292673306        5.689474786246865        5.689433877783863        7.125932421348488        7.125868830925833        9.126911560179014        9.12684795313625         10.43754129782396        10.437492297617668       12.438537547950489       12.438488486899516       13.727093422821028       13.727029883198107       15.728082586296287       15.728019026122752       17.0773081683794         17.07713905403904        19.078226684552344       19.078057780121668       20.464251553674163       20.46415441325272        22.465159030149223       22.46506164658792        23.743666276612544       23.74404642608796        25.744479113287316       25.74486022104436        26.84225384404362        26.842898880091663       28.842761631290635       28.843405927281047       29.999999999999996       29.999999999999996       32                       32                       850.0000000000001        850.0000000000001
0.04                     -850.0000000000001       -850.0000000000001       0.25944254986507764      2.258822137565487        3.7877422312572775       3.7877314549887475       5.787813991674747        5.787803170481535        7.338369848387015        7.338368355320525        9.33923041848112         9.339228909520076        10.675794802638228       10.675758524009227       12.676833667834819       12.676797306551538       13.943724642761701       13.94351919215975        15.944726439085704       15.94452113286519        17.314819908206562       17.31451253918623        19.315657837918984       19.315350489907473       20.695900471167118       20.695958793352546       22.696822317670303       22.69688073038726        23.87783321694323        23.878561401519654       25.878250993601117       25.878981516837133       26.873470576183873       26.874328738463976       28.873615876018643       28.874471758782406       29.999999999999996       29.999999999999996       32                       32                       850.0000000000001        850.0000000000001
0.05                     -850.0000000000001       -850.0000000000001       0.2812399125487241       2.28037919415206         3.853323512373109        3.853421987587518        5.852849217781072        5.852947078386664        7.503254198825223        7.503364365741664        9.503744482419666        9.503855009466946        10.927287996281843       10.927184992482507       12.928313888993836       12.928211063842541       14.233448710176386       14.233041503019928       16.234405913722718       16.233998903565727       17.584680545426743       17.584330954948662       19.585529937217565       19.585180139833497       20.89253128479458        20.892807026011305       22.89331102916907        22.893588166883518       23.97916169264353        23.98017798495207        25.979037860804926       25.98005717935628        26.89976859320593        26.900802485886743       28.899531773113157       28.90056183009819        29.999999999999996       29.999999999999996       32                       32                       850.0000000000001        850.0000000000001
0.06                     -850.0000000000001       -850.0000000000001       0.3026632865114967       2.301718400486032        3.888163256325166        3.888404801394361        5.887320408698148        5.887560944876533        7.622249266790386        7.622413956679425        9.621966291044416        9.622132783275823        11.191331978048337       11.191089768784115       13.192023662354433       13.191782820976378       14.586613445603643       14.586049392580046       16.587463734954042       16.58689983981502        17.88654540936751        17.886232383497145       19.887296695972775       19.88698434276239        21.064230878819075       21.064718509582402       23.064529862544553       23.065021121608414       24.046224655864055       24.047482227846945       26.045460276419657       26.04672120492758        26.914975988563096       26.916147596000076       28.91441073525827        28.915577116757852       29.999999999999996       29.999999999999996       32                       32                       850.0000000000001        850.0000000000001
0.07                     -850.0000000000001       -850.0000000000001       0.3202223402354629       2.319205381784138        3.9052036826341054       3.9055059140562634       5.903939881859885        5.904241163085805        7.722988536197198        7.723116545034688        9.721373878280547        9.721505664235966        11.457813515400774       11.4574288112755         13.457534810948989       13.457152971317065       14.962131351269587       14.961480549552647       16.96269210696859        16.962041280484325       18.211388143974673       18.21114921866413        20.211618534404174       20.211381995379078       21.234535263228477       21.235211796077575       23.233698604737597       23.234381586766496       24.08839018224203        24.08982271819734        26.086631583090206       26.088067382190612       26.913333349189802       26.91456575710228        28.91239704407063        28.91362320033087        29.999999999999996       29.999999999999996       32                       32                       850.0000000000001        850.0000000000001
0.08                     -850.0000000000001       -850.0000000000001       0.3467365016607129       2.3456287078627285       3.925405978814618        3.925639540603996        5.923665317296136        5.923898414586746        7.821543207513475        7.821562904192817        9.81822400240643         9.818248595882071        11.714504206755603       11.714039776116174       13.712731868048614       13.712271109321248       15.329867962595884       15.329235038966065       17.32999135740204        17.32935813024661        18.543543711143624       18.543427202625907       20.54292966762315        20.5428173752938         21.41379463298854        21.414627435570956       23.411160161695932       23.412002032919197       24.123384277652214       24.124914546836447       26.120246167082104       26.121779458504204       26.901907131614152       26.903166334916314       28.900539283422017       28.901791736772687       29.999999999999996       29.999999999999996       32                       32                       850.0000000000001        850.0000000000001
0.09                     -850.0000000000001       -850.0000000000001       0.400479856386058        2.3993007817537513       3.9724512014402675       3.9724944438525744       5.970334790684178        5.970378521722436        7.929152327465088        7.928982978877718        9.924243566228984        9.924078596502639        11.950776694928562       11.950280373059643       13.947408735171638       13.946915135586778       15.665224835699942       15.664714509389707       17.664925990936265       17.6644149714767         18.860932150195854       18.860989292883687       20.859496159479335       20.859558774224134       21.602940758898438       21.603910329990768       23.598290210272552       23.5992706367788         24.17471170539342        24.176320160407013       26.170041925059813       26.171653261110773       26.89720884226621        26.89849627440085        28.89539466644075        28.896674779828977       29.999999999999996       29.999999999999996       32                       32                       850.0000000000001        850.0000000000001
0.1                      -850.0000000000001       -850.0000000000001       0.48684084833009655      2.485628725030459        4.059968245638757        4.059761754571215        6.057651570827084        6.057446922073254        8.056545599313493        8.056129231189427        10.05061175114935        10.050198128603895       12.162491065324192       12.16196891764126        14.157943770939537       14.157421552485443       15.950305271868578       15.949977186687281       17.949765875607973       17.949436499187318       19.144026005833865       19.144309310486165       21.14212766858369        21.14241701883205        21.79985879457622        21.800983711669318       23.7936105135093         23.794746753238645       24.259986538671406       24.26167468818009        26.253908709852524       26.255599524996317       26.912576003208983       26.913918815599654       28.91032987543081        28.911664524623706       29.999999999999996       29.999999999999996       32                       32                       850.0000000000001        850.0000000000001
0.11                     -850.0000000000001       -850.0000000000001       0.595367198090695        2.5941259557797514       4.1858222281831665       4.185385452673737        6.183382567699312        6.182949034829773        8.21113861685156         8.210494071093935        10.204846348753021       10.20420275356479        12.353729132035877       12.353185864643534       14.34876962077957        14.34822295551494        16.179253780226222       16.179121141992194       18.17872339408591        18.17858868869418        19.384125783086652       19.384654877293944       21.382261591436347       21.38279664538196        22.002247171661388       22.003531060909722       23.995204663890156       23.99649940026706        24.383095460301995       24.384886032818574       26.37583324517511        26.37762663396893        26.95104753962955        26.952493041360203       28.94832333611007        28.949759235667464       29.999999999999996       29.999999999999996       32                       32                       850.0000000000001        850.0000000000001
0.12                     -850.0000000000001       -850.0000000000001       0.7100576936368523       2.7087415315260444       4.335615871752081        4.334994495047227        6.332950198200498        6.332333621967435        8.391668580328282        8.390817667295629        10.385427390571943       10.384576280997821       12.534635352200286       12.534040764346864       14.52998481772322        14.529384052644359       16.362301910357615       16.36232047692995        18.36198043870417        18.361996163151055       19.585110555295          19.585873734136708       21.58364568649339        21.584414716578703       22.206248256372184       22.207731699218204       24.199153399183707       24.200647296617          24.53514620113915        24.537121648683506       26.52684194121623        26.52882065739368        27.007117401615677       27.00873407320626        29.00373713239864        29.005341663411233       29.999999999999996       29.999999999999996       32                       32                       850.0000000000001        850.0000000000001
0.13                     -850.0000000000001       -850.0000000000001       0.8201583252937843       2.818705703522788        4.49189918187058         4.491137962396526        6.488785710479547        6.488030973707756        8.58792092118647         8.586910221840325        10.58177546622281        10.580763696286908       12.71549659139897        12.714845574342338       14.711505513715233       14.710846874267254       16.52116646583196        16.521262326133225       18.521138439875834       18.52123100550978        19.75999812502158        19.760937165355017       21.759025276727357       21.759970292590477       22.405744285566207       22.407458654308993       24.398979699828097       24.400705205316886       24.69982765547503        24.70207389289054        26.690494635739636       26.692744850508518       27.07148501592305        27.07334021936917        29.06718273296749        29.06902207373164        29.999999999999996       29.999999999999996       32                       32                       850.0000000000001        850.0000000000001
0.14                     -850.0000000000001       -850.0000000000001       0.9231418605729058       2.9215196024786247       4.641485921072479        4.640624411279026        6.637732089843916        6.636878678340532        8.785658952393637        8.784522822323174        10.77939455767777        10.778256995132164       12.902602691921683       12.901883814806512       14.899208688078197       14.898481556142952       16.679635173905254       16.679740727324745       18.679876044116593       18.679978220616896       19.92557789764986        19.92663628115006        21.924970376196818       21.926035258269106       22.59470138409183        22.59668510283401        24.588232913670236       24.59023003506663        24.858718217145427       24.86135488542243        26.84828847656693        26.85093044859056        27.134463068677764       27.136639077354587       29.129027126241375       29.13118178000248        29.999999999999996       29.999999999999996       32                       32                       850.0000000000001        850.0000000000001
0.15                     -850.0000000000001       -850.0000000000001       1.0213648412500873       3.0195839108084592       4.777863321270507        4.776940288249212        6.773420326137282        6.772506892054544        8.972464327336501        8.971216328809318        10.96577244131249        10.9645235760281         13.09724628518848        13.096415530634394       15.094119357762171       15.093279986237526       16.856109661604176       16.85617751777626        18.8565293861209         18.8565937895335         20.09732717371707        20.098482484765366       22.096858732716235       22.098021640676322       22.76925374097781        22.771557176021794       24.762735401869364       24.765055995221164       24.996866646963227       24.999985267181295       26.98524693316721        26.988371818986312       27.18824459216668        27.190765614459206       29.181634587730546       29.184127259813625       29.999999999999996       29.999999999999996       32                       32                       850.0000000000001        850.0000000000001
0.16                     -850.0000000000001       -850.0000000000001       1.1178542116333257       3.115953140886585        4.900019826908157        4.899075087828778        6.894975449829562        6.894041456098956        9.142024720754954        9.140691723288771        11.134609153558104       11.133276690747502       13.297487540189497       13.29650087609291        15.29419538009907        15.293200400965608       17.05898929916889        17.058940324877334       19.059473613723576       19.05942092957211        20.28517159329761        20.286421573702793       22.28459356203786        22.285853455364432       22.92905672270633        22.931754550542344       24.921952291398682       24.92467271188925        25.105386607527034       25.10910761347046        27.09244413701249        27.096173105755746       27.226858328612924       27.229825529057454       29.219225040526176       29.222155250592255       29.999999999999996       29.999999999999996       32                       32                       850.0000000000001        850.0000000000001
0.17                     -850.0000000000001       -850.0000000000001       1.215197573111298        3.213220380976165        5.010511868414406        5.009571019351934        7.005018545114057        7.004089240093984        9.294388049329244        9.29298235221269         11.286002965225299       11.284599974063308       13.500623073416886       13.499457239271225       15.496732901888068       15.49555902958998        17.287116815919585       17.28692762378937        19.287552775506963       19.287359295571985       20.49146241905251        20.49283554126648        22.49052557512386        22.491912424185678       23.075710668982325       23.078932934536706       25.06738197735412        25.070634787095972       25.181551778853187       25.185999231814424       27.167104326592593       27.17155896732364        27.247623046924062       27.251000050093218       29.23925108586429        29.242580644364487       29.999999999999996       29.999999999999996       32                       32                       850.0000000000001        850.0000000000001
0.18                     -850.0000000000001       -850.0000000000001       1.3158859380301764       3.313868226737617        5.114558826187903        5.113609256933532        7.1087642758989045       7.107827001327569        9.434356724029906        9.43286316371697         11.424837752989559       11.423349321192655       13.704190851993335       13.702823621326894       15.69934682108464        15.69797207904063        17.531992321145548       17.531642011090234       19.53229231602629        19.531936746120735       20.710610857624932       20.71219564867565        22.709086093614648       22.710690688206068       23.21101122745779        23.214898351266736       25.200849156762157       25.204775206340837       25.230459700974688       25.235606594661867       27.214342764123703       27.219491376912288       27.253284925781358       27.25694654057031        29.24446381017209        29.248068945901547       29.999999999999996       29.999999999999996       32                       32                       850.0000000000001        850.0000000000001
0.19                     -850.0000000000001       -850.0000000000001       1.421846238344607        3.4198089672177177       5.218836351948269        5.217854858383704        7.212838050428704        7.211869965827657        9.56954322114694         9.567916538566417        11.558843568135885       11.557224794562964       13.906069800585751       13.904484933812983       15.900081329011533       15.898488445654303       17.78101242044192        17.780583870292237       19.78114175807173        19.780706323887134       20.93128515749035        20.933219066103952       22.929005244256444       22.930966205099498       23.336255802979903       23.34083789206882        25.323852225488277       25.32847966517181        25.262884418024452       25.268620131996087       27.24503263799279        27.2507621914984         27.25042654629726        27.254283562941666       29.241347092158833       29.245140723673558       29.999999999999996       29.999999999999996       32                       32                       850.0000000000001        850.0000000000001
0.2                      -850.0000000000001       -850.0000000000001       1.5328923839203366       3.5308373273469926       5.329535293562169        5.328490138783905        7.323344589273813        7.322314538547255        9.708653414031785        9.706848547331058        11.69685732052995        11.695062784869402       14.104644296430779       14.102879362418214       16.0975801779747         16.095804646574326       18.020012822321103       18.01965848579888        20.020012013667966       20.019648859212435       21.140212488893425       21.14260702219426        23.13713051862589        23.13955889925411        23.45296531342718        23.458178916249615       25.438262970365397       25.443525090141808       25.29143139952167        25.29761600627297        27.271908945754074       27.278079210061453       27.24670721845479        27.250692526227784       29.23743107650796        29.241347844880707       29.999999999999996       29.999999999999996       32                       32                       850.0000000000001        850.0000000000001
0.21                     -850.0000000000001       -850.0000000000001       1.6461296935380991       3.6440374796329653       5.450053410347866        5.448861960947089        7.44357800131314         7.44240394035879         9.858725519884624        9.856708280507902        11.846014333722621       11.844007584910383       14.29891633030355        14.297065871597248       16.291112717401628       16.289246840857412       18.23786302952695        18.23775073677454        20.237836549873993       20.23771386829844        21.327166280940585       21.330089608330823       23.323370842474837       23.326333136648575       23.56268283728685        23.568438911544707       25.545991767655334       25.551796087499056       25.32623677021789        25.332736528843622       27.30521495227786        27.311692514328005       27.24814595550295        27.252203236680312       29.23862740681758        29.242612257036104       29.999999999999996       29.999999999999996       32                       32                       850.0000000000001        850.0000000000001
0.22                     -850.0000000000001       -850.0000000000001       1.7576151838920642       3.7554507805942587       5.579705901056391        5.578302370343458        7.572770640141498        7.571387370483684        10.022317405697654       10.02008138198481        12.008879148182789       12.006651194220105       14.489198385512662       14.48737874644887        16.481126889295734       16.47928505240967        18.430340033262638       18.43061783843378        20.43041305835662        20.43067999312066        21.48816649911878        21.491638455781484       23.483828788208065       23.487342527809755       23.66668518075862        23.6728758081301         25.648527662764803       25.654763528082203       25.371727072362745       25.37843906329859        27.34940956142402        27.356093200938314       27.257109395995094       27.26122587169872        29.247244436271608       29.251285226982034       29.999999999999996       29.999999999999996       32                       32                       850.0000000000001        850.0000000000001
0.23                     -850.0000000000001       -850.0000000000001       1.8643263895124753       3.8620497475032036       5.714602434290809        5.712940362414591        7.706992007806892        7.705353637968092        10.19710936800971        10.194678968653916       12.183054578704525       12.180626406145926       14.676509321277909       14.674855623040903       16.668588971485168       16.66690614085876        18.600679019399916       18.60143943086855        20.600940747141927       20.601690995409342       21.625893053821105       21.629901479049337       23.621166247167036       23.625217272336624       23.76513599361583        23.77167844534742        25.746012629254547       25.752595997557314       25.42634365830847        25.43321874524562        27.402909299327565       27.409751474546585       27.2726718902376         27.276855636388802       29.262345789796168       29.26645048700449        29.999999999999996       29.999999999999996       32                       32                       850.0000000000001        850.0000000000001
0.24                     -850.0000000000001       -850.0000000000001       1.9658473102952745       3.9634289018014517       5.849963148324737        5.8480564351630795       7.841495517813686        7.839615280437265        10.377032908578002       10.374489570888517       12.36237124243628        12.359823099555747       14.861801913715105       14.860389869547493       16.854255454695927       16.85280842253978        18.75716989856532        18.75843496017011        20.757645906962072       20.75890247691377        21.747584336214263       21.752095123890484       23.74252670017102        23.747080218820134       23.85741272231947        23.864281214993106       25.83762224093164        25.844527315746735       25.484565152292674       25.49159323690388        27.460143143818335       27.467134114590053       27.291810937883827       27.296066460698757       29.280943208079385       29.285116156832977       29.999999999999996       29.999999999999996       32                       32                       850.0000000000001        850.0000000000001
0.25                     -850.0000000000001       -850.0000000000001       2.064132769553403        4.061566642099133        5.981796717358845        5.979713203294122        7.972397881414739        7.970343450559782        10.55473018574752        10.552121002919822       12.539388521025979       12.536767932940132       15.045395669611185       15.04425601807449        17.03822298644287        17.037042823181835       18.909363590777993       18.911139997714344       20.910023516307845       20.911793540008542       21.8620627441258         21.86705864002699        23.85661891997029        23.861657478192598       23.943033381568505       23.95022064483212        25.922612248123016       25.929832035158277       25.539790556976072       25.546983049396353       27.514450684541096       27.52160179686121        27.310738413621507       27.315063266608536       29.299318711368233       29.30355720870599        29.999999999999996       29.999999999999996       32                       32                       850.0000000000001        850.0000000000001