% Model:              Untitled.mph
% Version:            COMSOL 6.0.0.405
% Date:               Jul 2 2023, 16:12
% Table:              Table 9 - Point Evaluation 3
% Time (s)               x-coordinate (mm), Point: 1x-coordinate (mm), Point: 2x-coordinate (mm), Point: 3x-coordinate (mm), Point: 4x-coordinate (mm), Point: 5x-coordinate (mm), Point: 6x-coordinate (mm), Point: 7x-coordinate (mm), Point: 8x-coordinate (mm), Point: 9x-coordinate (mm), Point: 10x-coordinate (mm), Point: 11x-coordinate (mm), Point: 12x-coordinate (mm), Point: 13x-coordinate (mm), Point: 14x-coordinate (mm), Point: 15x-coordinate (mm), Point: 16x-coordinate (mm), Point: 17x-coordinate (mm), Point: 18x-coordinate (mm), Point: 19x-coordinate (mm), Point: 20x-coordinate (mm), Point: 21x-coordinate (mm), Point: 22x-coordinate (mm), Point: 23x-coordinate (mm), Point: 24x-coordinate (mm), Point: 25x-coordinate (mm), Point: 26x-coordinate (mm), Point: 27x-coordinate (mm), Point: 28x-coordinate (mm), Point: 29x-coordinate (mm), Point: 30x-coordinate (mm), Point: 31x-coordinate (mm), Point: 32x-coordinate (mm), Point: 33x-coordinate (mm), Point: 34x-coordinate (mm), Point: 35x-coordinate (mm), Point: 36x-coordinate (mm), Point: 37x-coordinate (mm), Point: 38x-coordinate (mm), Point: 39x-coordinate (mm), Point: 40x-coordinate (mm), Point: 41x-coordinate (mm), Point: 42
0                        -850.0000000000001       -850.0000000000001       0.014655938689873516     2.016043457675496        3.333012645425219        3.333012645425219        5.333141084024552        5.333141084024552        6.6670035545532995       6.6670035545532995       8.667015600327415        8.667015600327415        10.000000237331305       10.000000237331305       12.000001073831934       12.000001073831934       13.333000014273997       13.333000014273997       15.333000067487047       15.333000067487047       16.667000000834648       16.667000000834648       18.66700000405199        18.66700000405199        20.000000000047585       20.000000000047585       22.000000000235836       22.000000000235836       23.33300000000266        23.33300000000266        25.33300000001342        25.33300000001342        26.667000000000144       26.667000000000144       28.66700000000075        28.66700000000075        29.999999999999996       29.999999999999996       32                       32                       850.0000000000001        850.0000000000001
0.01                     -850.0000000000001       -850.0000000000001       0.8696497866165058       2.8754586864360214       3.86156276462435         3.8615379034704556       5.863632546113622        5.8636076108485815       6.761430832740798        6.761395025400995        8.764684807303762        8.764649130171975        9.965166692437787        9.965129428079013        11.968930309735716       11.96889327143131        13.333355284501657       13.33332223488163        15.337114459995206       15.337081698581107       16.698284730378976       16.698268229302457       18.70209531847817        18.702079157713637       20.02886013088427        20.02886643977495        22.032660574439312       22.0326672714346         23.35103068714734        23.35099754777513        25.354805444675325       25.354772797766323       26.67779995249974        26.677571486905297       28.681559200340864       28.681331423004487       29.999999999999996       29.999999999999996       32                       32                       850.0000000000001        850.0000000000001
0.02                     -850.0000000000001       -850.0000000000001       1.4429812366359804       3.4491510840920325       4.476696081876785        4.47664112613679         6.479720566441099        6.479665011091519        7.039167582767361        7.039069576994176        9.040305598951887        9.040207058125244        9.803458793780406        9.803351680809717        11.80875584465935        11.808648602466763       13.115267177628494       13.115213556034801       15.1206601616538         15.120605921774008       16.657806094936063       16.65786489636625        18.663289413102184       18.66334737267904        20.095548231687996       20.09565131610668        22.101568616069915       22.101671327516286       23.407676521571123       23.407582843254627       25.41375129295532        25.41365719333469        26.69691410562296        26.696450276537057       28.702973164317758       28.702508837177795       29.999999999999996       29.999999999999996       32                       32                       850.0000000000001        850.0000000000001
0.03                     -850.0000000000001       -850.0000000000001       1.714313798103661        3.7199172556013322       4.841868443594574        4.841754430802283        6.845734113835016        6.845619088082974        7.304018217780143        7.303811618111692        9.300082559291527        9.299875000659794        9.5849909554294          9.584818221489124        11.586349234931479       11.58617802613129        12.6004680347703         12.600507312016344       14.605968744902032       14.606006896264821       16.37411699332238        16.374379100697308       18.376435685444406       18.37669595881771        20.187840433870466       20.188108981883907       22.192833892159808       22.19310298504472        23.60482414925577        23.604904900400744       25.61099779687297        25.611078011259416       26.773224107882484       26.773038933326458       28.7792182366039         28.779031565156885       29.999999999999996       29.999999999999996       32                       32                       850.0000000000001        850.0000000000001
0.04                     -850.0000000000001       -850.0000000000001       2.1434248517724526       4.149301513897592        5.1639668214114955       5.163663440670041        7.16536245786363         7.165056243371993        7.378084843660517        7.37766743244846         9.366056233646217        9.365639724798989        9.230188427644736        9.229972402986505        11.222967574105827       11.222758091646053       11.884966201751853       11.885116110243946       13.890055326038139       13.89020465119435        15.815605909053142       15.816019293153076       17.810345125368787       17.810754066730404       20.182900016516          20.183586572332562       22.180706598741587       22.18138620951626        23.939910721750845       23.94109150154531        25.945297114125353       25.946476562222163       26.96076335042545        26.96186527638123        28.964741797392218       28.965836312283784       29.999999999999996       29.999999999999996       32                       32                       850.0000000000001        850.0000000000001
0.05                     -850.0000000000001       -850.0000000000001       3.22203304333073         5.229706282548263        5.814676099671911        5.814124721743716        7.802247156547923        7.801686584722646        7.258252217190522        7.2576011750606835       9.223700849441515        9.223055810339211        8.545987036694285        8.54569955105649         10.528354018331255       10.528077787797908       10.991542646608458       10.991701250304244       12.995674356337886       12.995831821731393       15.119036136488674       15.119790553385323       17.10382984443584        17.10455965360323        19.99060352898183        19.992639190907244       21.9756316697631         21.977620822971733       24.153814646624102       24.15737822473095        26.15784092922866        26.16139767113182        27.134830805459227       27.137827872876066       29.13609160486476        29.139060465819536       29.999999999999996       29.999999999999996       32                       32                       850.0000000000001        850.0000000000001
0.06                     -850.0000000000001       -850.0000000000001       5.2326050762918355       7.243226245169321        7.075184932178357        7.074464798032925        9.017352896067576        9.016609884023968        7.2098027084238145       7.208846378133604        9.120715731979939        9.119761273405022        7.657780995149007        7.657031827260293        9.62414258119235         9.623407438870078        9.976137605389965        9.97615927933752         11.978119392098543       11.97813816873697        14.332980427196768       14.334884615304603       16.308103427745234       16.309926218683554       19.486288720503048       19.490966238777993       21.461465140897886       21.4660524901407         23.920422937429652       23.92670508506296        25.92131621330323        25.92759714450772        27.0928494844162         27.096973871565336       29.09360381574642        29.097691728659306       29.999999999999996       29.999999999999996       32                       32                       850.0000000000001        850.0000000000001
0.07                     -850.0000000000001       -850.0000000000001       7.8115962263962          9.824858286288165        8.965771944976446        8.964902287004419        10.840036568210671       10.839107847097432       7.807157892597415        7.805380975856209        9.6409235438521          9.639096035822122        7.336809531024011        7.334817940956185        9.277753197039557        9.275792015788808        9.267905233296535        9.267712353693444        11.267908353734622       11.267723778940308       13.423076454297034       13.426720655108097       15.402463560803463       15.405990645780347       18.44090323503357        18.44805492618962        20.415811316353675       20.422890684087292       23.044877491987116       23.052237812797884       25.03924697818413        25.046642878695952       26.74934602115623        26.752844000565887       28.75033799085396        28.75384580842729        29.999999999999996       29.999999999999996       32                       32                       850.0000000000001        850.0000000000001
0.08                     -850.0000000000001       -850.0000000000001       10.395476180699099       12.409894444605834       11.304075978201709       11.302473814013764       13.144679143078816       13.142957046452631       9.505077249195475        9.50195322280819         11.277312619814927       11.27410306489314        8.177264329431013        8.174107900478385        10.071557263564557       10.068487886522604       9.157794033898284        9.157637378732554        11.147755694235377       11.147677664077461       12.443544018726481       12.44800549131679        14.437762201963054       14.442167679103814       16.9868079283451         16.99381026088364        18.966365381259667       18.973355080755635       21.791102668180343       21.79636841395916        23.77324881292241        23.778613689159624       26.247587560557456       26.248660624074578       28.241114200844486       28.242247922300095       29.999999999999996       29.999999999999996       32                       32                       850.0000000000001        850.0000000000001
0.09                     -850.0000000000001       -850.0000000000001       13.077509013373051       15.091153392851131       14.005137492773818       14.002458128301846       15.847362408202635       15.844528628820651       12.151592797440554       12.147681352153269       13.897472004102521       13.89356596868274        10.20039114352127        10.197799057959106       12.026259424885783       12.023862449915367       9.86543631294798         9.866307665555068        11.81094299080594        11.811964150936952       11.76937424573343        11.77325928368234        13.766730956340213       13.77062277263404        15.600957846117616       15.604592370414283       17.586220496210572       17.589899641626253       20.583734459566166       20.58401625329906        22.547843501361367       22.54826920069986        25.76674644648234        25.764374169860275       27.741414245757902       27.7390499156837         29.999999999999996       29.999999999999996       32                       32                       850.0000000000001        850.0000000000001
0.1                      -850.0000000000001       -850.0000000000001       16.09060925213347        18.103426595814597       17.088386810475434       17.085762627769114       18.939860638812217       18.93712037341146        15.336252386125565       15.333366680458608       17.07518042308312        17.072420306931644       13.020854764909487       13.020455735820704       14.784865909797439       14.784739145665409       11.576670353425431       11.579256097599337       13.450658731895402       13.453360657853846       12.070133235378348       12.07305819689725        14.046181273335337       14.049054022298286       14.974759005199488       14.97430836092325        16.968676412261498       16.96827623217213        19.841615131232064       19.836754336449566       21.796703993715266       21.791982453962543       25.441980435197774       25.43657141853832        27.39813104524885        27.392587638371722       29.999999999999996       29.999999999999996       32                       32                       850.0000000000001        850.0000000000001
0.11                     -850.0000000000001       -850.0000000000001       19.746344450085367       21.7595137241138         20.77773185439109        20.776841439434197       22.629644646747114       22.62874111821226        18.902842328274513       18.902698238258505       20.616717503525347       20.616742402188454       16.146720564602987       16.14878115241371        17.85345969975132        17.855728864185803       13.885141867702977       13.888531767144135       15.691956068313084       15.69532164188495        13.3197066741265         13.320914269786591       15.26112855872997        15.262153349536183       15.33414571793146        15.32995372899679        17.333486893076124       17.329297429371742       19.810874582258563       19.802185129223314       21.772991827489133       21.76439295222147        25.405468260737674       25.39813569853761        27.359714298867427       27.35214168090466        29.999999999999996       29.999999999999996       32                       32                       850.0000000000001        850.0000000000001
0.12                     -850.0000000000001       -850.0000000000001       24.348068732952704       26.362129044499923       25.257769760883566       25.259499993377403       27.08879405486422        27.090655821251737       22.925055924795704       22.928465403400523       24.57622738842654        24.579789008093293       19.45923437727834        19.463549793136394       21.0865057066714         21.090811780634855       16.401593685178206       16.4045314985539         18.142877821979212       18.145524638030736       15.063265012373053       15.061370295335433       16.970581051194348       16.968353188193127       16.41230582494843        16.40404907109639        18.409730295968824       18.40142327304767        20.375900204886445       20.36444495138205        22.353529145631875       22.34208168466637        25.59061740877576        25.582640913102246       27.558044093180275       27.54980523448332        29.999999999999996       29.999999999999996       32                       32                       850.0000000000001        850.0000000000001
0.13                     -850.0000000000001       -850.0000000000001       29.77393728112817        31.789329506843767       30.39642912753443        30.400702111966808       32.182810651738585       32.187382695416275       27.371426674169122       27.378080079405994       28.930229051444275       28.936966392034808       23.083698147248004       23.089486847140336       24.616281511156448       24.621700163563304       19.27999661975223        19.281160387365745       20.958853662222566       20.959374546987576       17.355634330886705       17.34958631664881        19.231481072277003       19.224987461912338       18.138442304690297       18.12643842214631        20.12630047532863        20.11422802633017        21.39619381803           21.383601747868223       23.389808567862612       23.377180155614038       25.90631077995242        25.89918783223317        27.891058827093605       27.883748849581558       29.999999999999996       29.999999999999996       32                       32                       850.0000000000001        850.0000000000001
0.14                     -850.0000000000001       -850.0000000000001       35.530201557188704       37.547078470216796       35.878742792663374       35.884734159954846       37.61747550882442        37.623890862466155       32.21063243347314        32.219024249097885       33.67738519028525        33.68569845347533        27.234288657863445       27.239761702211283       28.684676215540417       28.68935942853411        22.865118246360723       22.863203156783015       24.49111545084804        24.48826335177487        20.431102469585298       20.420845692104912       22.269012720817017       22.258281806463188       20.51757302144643        20.50309234669312        22.482682497949266       22.46817852065878        22.806044564936116       22.793853659864006       24.80429457367049        24.792129070724346       26.346700067650463       26.34132713294661        28.343777516798106       28.338345615564883       29.999999999999996       29.999999999999996       32                       32                       850.0000000000001        850.0000000000001
0.15                     -850.0000000000001       -850.0000000000001       41.283911843179574       43.30165076026834        41.48476291402846        41.490961650210764       43.195122652094206       43.20173369446764        37.45982307103971        37.46747446162279        38.87024818656825        38.87758689886359        32.085198047379166       32.08824916534395        33.47982032391832        33.481801956392          27.30432506868906        27.298855540337588       28.87737088606736        28.870861572917327       24.293744428878167       24.28057857767582        26.074892102694275       26.061312617234254       23.4597329545218         23.44453563392343        25.37897079593092        25.36386367692171        24.530207518585907       24.519624723722654       26.509246527416643       26.498844405162526       26.89038793052422        26.887235759569595       28.886425259701202       28.883336842180224       29.999999999999996       29.999999999999996       32                       32                       850.0000000000001        850.0000000000001
0.16                     -850.0000000000001       -850.0000000000001       46.821563521391155       48.83899727738776        47.021853435040114       47.02612471816607        48.7339659534174         48.73847184750517        43.03549841954175        43.03971824714076        44.4498716758366         44.45363161750239        37.643990360813476       37.643082375152204       39.02047747341053        39.018520357618826       32.61119998296219        32.60275510909617        34.1274035710726         34.11807192433746        28.926560521515327       28.912672287462026       30.622899763411336       30.608763333577507       26.93816732466431        26.92453575603003        28.774830992509855       28.761465590657554       26.54127761925446        26.53362327562916        28.464246682999477       28.45696598549658        27.52625765735169        27.525625449678774       29.500747815402345       29.500253673637843       29.999999999999996       29.999999999999996       32                       32                       850.0000000000001        850.0000000000001
0.17                     -850.0000000000001       -850.0000000000001       51.80330337712042        53.8190116265607         52.133642865968774       52.134020981668364       53.876370816880396       53.87669710945176        48.61195313890955        48.610584835763326       50.09832521582746        50.096535039729716       43.67502502343487        43.66970033322793        45.0887726231433         45.08280773058208        38.672994553856505       38.663429008714736       40.14524996320834        40.13525274757025        34.35238937214302        34.3409626503029         35.93983129612343        35.928449336470855       31.08457984304807        31.07548091976514        32.79229460219618        32.78363926637654        29.02548271109175        29.02233394381486        30.84079921310143        30.83815203772297        28.37759560508115        28.37980352969124        30.29648517771789        30.298803518182755       29.999999999999996       29.999999999999996       32                       32                       850.0000000000001        850.0000000000001
0.18                     -850.0000000000001       -850.0000000000001       55.68216961650194        57.694352699576214       56.21086212405808        56.20658236725516        57.99865460512822        57.99405562070535        53.513732073666716       53.50628260228523        55.11826533208956        55.110566628861754       49.51275228958878        49.503976467423946       51.02243080544866        51.0136210608306         44.97985943717263        44.97172525984544        46.456584395661274       46.4486759695999         40.37204966783446        40.36647214762104        41.866846936459716       41.8617164011898         36.05184254363523        36.05042252434135        37.60360234494537        37.60273737530866        32.33209116614877        32.33534370976088        33.97420499968933        33.97786512044475        29.706545080989315       29.71169341352117        31.498642973759214       31.503589582453674       29.999999999999996       29.999999999999996       32                       32                       850.0000000000001        850.0000000000001
0.19                     -850.0000000000001       -850.0000000000001       57.84600074156373        59.852240297160336       58.51920919501233        58.5130928834383         60.34041590586271        60.33391947394051        56.69665102762998        56.68694292008263        58.40731558026706        58.397448403292316       53.831599754766536       53.82204348828028        55.456259558512635       55.44690608912069        50.16912154138263        50.1628529700939         51.711324435170845       51.70556015623958        45.85526168105335        45.85373462554163        47.32972297864468        47.32879168620388        41.10594985928757        41.10874719960322        42.54158577604217        42.54480992370046        36.19082326297078        36.19579058023468        37.62941905762326        37.63437527970451        31.58373630337992        31.586243649654502       33.148381809230955       33.15010286864306        29.999999999999996       29.999999999999996       32                       32                       850.0000000000001        850.0000000000001
0.2                      -850.0000000000001       -850.0000000000001       57.98003658837148        59.98139266987929        58.71704173122041        58.714440499049516       60.55120774461467        60.54845116734582        57.38899178144527        57.3845931846792         59.15107043104543        59.14658238999841        55.274476752227436       55.26958054215234        56.97119120611924        56.9663122310104         52.36127213214652        52.356959005662425       53.97219551015397        53.96798064140711        48.577819239665686       48.57433025541269        50.088906588206775       50.08548833316089        43.974556391724484       43.97118045603247        45.389071258884854       45.385623838822106       38.696007538186954       38.69135626146892        40.024485857957195       40.01940902759515        32.97963502615416        32.970778217574335       34.33830847795801        34.32870310802069        29.999999999999996       29.999999999999996       32                       32                       850.0000000000001        850.0000000000001
0.21                     -850.0000000000001       -850.0000000000001       56.52384103296084        58.52865216749409        57.36184752619793        57.36372600062079        59.20868302521355        59.210667856693426       56.111125049998826       56.113929562905874       57.887154800695974       57.88998459535568        54.12692775870431        54.129186068958624       55.84753406129418        55.84968649744305        51.45342492416545        51.453673409720196       53.10066128344214        53.10065170761873        47.96069242774684        47.95779250336397        49.50952430285773        49.50622462769442        43.55220067704019        43.545645293549654       44.98249086308732        44.97546882573837        38.27285757822292        38.26315903933113        39.59973191900439        39.58971181357082        32.61441871473722        32.603327710469394       34.01734554670794        34.00624817777761        29.999999999999996       29.999999999999996       32                       32                       850.0000000000001        850.0000000000001
0.22                     -850.0000000000001       -850.0000000000001       54.61680269141211        56.62736028348673        55.62214572697489        55.62674360554399        57.48168997631771        57.4865534354126         54.18906492451439        54.196585229588656       55.95161863073622        55.959269329837845       51.90128276412214        51.90895717471107        53.609341704285384       53.61689033680277        49.02628941771543        49.03154086508449        50.67012181773718        50.67501700709464        45.440040899000195       45.441618280723745       46.992996360984144       46.99415732262166        41.0265774446766         41.0254951664577         42.47544767872645        42.474222803730335       35.94320403675764        35.94250300093456        37.34480256775893        37.34440168526154        31.10944269032622        31.110338432707344       32.70014408628702        32.70084175994885        29.999999999999996       29.999999999999996       32                       32                       850.0000000000001        850.0000000000001
0.23                     -850.0000000000001       -850.0000000000001       53.32258987413821        55.33508832190119        54.378621913449265       54.384525118898075       56.23535575528147        56.241610875019404       52.607367835897406       52.61718788735699        54.3247319341325         54.33476370585656        49.694975604338275       49.70564190186075        51.34188165022735        51.35247960835476        46.21183377015621        46.22122928786711        47.79976015133896        47.80898144177601        42.159765601851866       42.168364192726514       43.672656556176236       43.68133687982003        37.5440825002907         37.5547552080282         39.006457970583924       39.017619144288915       32.87807730058991        32.892354353156314       34.412920489374905       34.42743530815227        29.522178240786324       29.534111967967437       31.307563659956912       31.318680460467444       29.999999999999996       29.999999999999996       32                       32                       850.0000000000001        850.0000000000001
0.24                     -850.0000000000001       -850.0000000000001       52.72989043649719        54.74270697899704        53.538188087000364       53.54351514807511        55.362116678448174       55.367801777974734       51.23317701641548        51.24240936648858        52.881299509958474       52.89084215171565        47.54779676253652        47.559461305203165       49.091539350393745       49.103480772960424       43.16677485032001        43.18111016946785        44.649173014413805       44.663978800034904       38.45842847449672        38.477226004689584       39.928382993403304       39.94789616952148        33.91215281581084        33.93612984827184        35.454257030565856       35.478687856724065       30.323191986072807       30.347964049789447       32.02527816591953        32.049628959421035       28.652634409780788       28.66719556007946        30.5400465171979         30.55368135599054        29.999999999999996       29.999999999999996       32                       32                       850.0000000000001        850.0000000000001
0.25                     -850.0000000000001       -850.0000000000001       51.88150160745906        53.89541418443578        52.410467509922746       52.41392869148506        54.19145590425367        54.19523878952601        49.45576430547224        49.46355738232242        51.01739825366483        51.02581321712588        45.00154986397066        45.01523961641801        46.448892202388905       46.46352089123898        40.006834027064734       40.02788689670957        41.43813517253876        41.460260121406314       35.22211459406182        35.25036417983008        36.738443313131555       36.76739388563794        31.393889022888725       31.425246399279864       33.05752111522407        33.088777376902215       29.038823145846834       29.065038679842324       30.844313145111872       30.869768676419387       28.35866335278848        28.371934300999442       30.2784391676732         30.290963753121584       29.999999999999996       29.999999999999996       32                       32                       850.0000000000001        850.0000000000001