% Model:              jellyFish_twobar_fine_fsi_Inflow_demo_ufu015.mph
% Version:            COMSOL 6.0.0.405
% Date:               Jul 2 2023, 14:19
% Table:              Table 3 - Point Evaluation 3
% Time (s)               x-coordinate (mm), Point: 1x-coordinate (mm), Point: 2x-coordinate (mm), Point: 3x-coordinate (mm), Point: 4x-coordinate (mm), Point: 5x-coordinate (mm), Point: 6x-coordinate (mm), Point: 7x-coordinate (mm), Point: 8x-coordinate (mm), Point: 9x-coordinate (mm), Point: 10x-coordinate (mm), Point: 11x-coordinate (mm), Point: 12x-coordinate (mm), Point: 13x-coordinate (mm), Point: 14x-coordinate (mm), Point: 15x-coordinate (mm), Point: 16x-coordinate (mm), Point: 17x-coordinate (mm), Point: 18x-coordinate (mm), Point: 19x-coordinate (mm), Point: 20x-coordinate (mm), Point: 21x-coordinate (mm), Point: 22x-coordinate (mm), Point: 23x-coordinate (mm), Point: 24x-coordinate (mm), Point: 25x-coordinate (mm), Point: 26x-coordinate (mm), Point: 27x-coordinate (mm), Point: 28x-coordinate (mm), Point: 29x-coordinate (mm), Point: 30x-coordinate (mm), Point: 31x-coordinate (mm), Point: 32x-coordinate (mm), Point: 33x-coordinate (mm), Point: 34x-coordinate (mm), Point: 35x-coordinate (mm), Point: 36x-coordinate (mm), Point: 37x-coordinate (mm), Point: 38x-coordinate (mm), Point: 39x-coordinate (mm), Point: 40x-coordinate (mm), Point: 41x-coordinate (mm), Point: 42x-coordinate (mm), Point: 1x-coordinate (mm), Point: 2x-coordinate (mm), Point: 3x-coordinate (mm), Point: 4x-coordinate (mm), Point: 5x-coordinate (mm), Point: 6x-coordinate (mm), Point: 7x-coordinate (mm), Point: 8x-coordinate (mm), Point: 9x-coordinate (mm), Point: 10x-coordinate (mm), Point: 11x-coordinate (mm), Point: 12x-coordinate (mm), Point: 13x-coordinate (mm), Point: 14x-coordinate (mm), Point: 15x-coordinate (mm), Point: 16x-coordinate (mm), Point: 17x-coordinate (mm), Point: 18x-coordinate (mm), Point: 19x-coordinate (mm), Point: 20x-coordinate (mm), Point: 21x-coordinate (mm), Point: 22x-coordinate (mm), Point: 23x-coordinate (mm), Point: 24x-coordinate (mm), Point: 25x-coordinate (mm), Point: 26x-coordinate (mm), Point: 27x-coordinate (mm), Point: 28x-coordinate (mm), Point: 29x-coordinate (mm), Point: 30x-coordinate (mm), Point: 31x-coordinate (mm), Point: 32x-coordinate (mm), Point: 33x-coordinate (mm), Point: 34x-coordinate (mm), Point: 35x-coordinate (mm), Point: 36x-coordinate (mm), Point: 37x-coordinate (mm), Point: 38x-coordinate (mm), Point: 39x-coordinate (mm), Point: 40x-coordinate (mm), Point: 41x-coordinate (mm), Point: 42
0                        -850.0000000000001       -850.0000000000001       0                        2                        3.3329999999999993       3.3329999999999993       5.333                    5.333                    6.667000000000001        6.667000000000001        8.667                    8.667                    10                       10                       12                       12                       13.333000000000002       13.333000000000002       15.333000000000002       15.333000000000002       16.667                   16.667                   18.667                   18.667                   20                       20                       22                       22                       23.333                   23.333                   25.333000000000002       25.333000000000002       26.666999999999998       26.666999999999998       28.667                   28.667                   29.999999999999996       29.999999999999996       32                       32                       850.0000000000001        850.0000000000001        -850.0000000000001       -850.0000000000001       0.0036598175976672942    2.0040087387583805       3.3330031875015096       3.3330031875015096       5.333035432843244        5.333035432843244        6.667000891481182        6.667000891481182        8.66700391249484         8.66700391249484         10.00000005950207        10.00000005950207        12.000000269245021       12.000000269245021       13.333000003578423       13.333000003578423       15.333000016919598       15.333000016919598       16.66700000020923        16.66700000020923        18.667000001015808       18.667000001015808       20.00000000001193        20.00000000001193        22.000000000059117       22.000000000059117       23.333000000000666       23.333000000000666       25.333000000003366       25.333000000003366       26.667000000000037       26.667000000000037       28.66700000000019        28.66700000000019        29.999999999999996       29.999999999999996       32                       32                       850.0000000000001        850.0000000000001
0.01                     -850.0000000000001       -850.0000000000001       0.2514287430038546       2.251021505411062        3.5993645631020335       3.5993830762774093       5.599307001063025        5.599325778893826        6.927183351068985        6.927226510662413        8.92701307365776         8.9270567854622          10.257057575189021       10.257117874214162       12.256802208089262       12.256863340584442       13.587484692599498       13.587556130409551       15.587160955992337       15.587233478923341       16.91906882196374        16.919148220622073       18.918693099036503       18.918773796664308       20.247573830315485       20.24762984607158        22.247185297027848       22.247242925705834       23.59503696405446        23.595087808187504       25.594504924844617       25.594557245074764       26.896971953601128       26.897337850814893       28.896359573762727       28.896731221615383       29.999999999999996       29.999999999999996       32                       32                       850.0000000000001        850.0000000000001        -850.0000000000001       -850.0000000000001       0.20112834736548849      2.2025000072731964       3.4600219555202645       3.4600162632263682       5.460930900250198        5.460925219917552        6.700251584261795        6.7002435772813245       8.701166025132583        8.70115805380429         9.999716907616024        9.999708613031265        12.000643198428902       12.000634958844405       13.334382105046904       13.334374655714313       15.33531274844302        15.335305370999253       16.673181628371047       16.673177137220822       18.67411539566711        18.674110989721594       20.006201088549382       20.00619975190121        22.00713164511067        22.00713040381248        23.337355528381906       23.337344043404844       25.338281184680216       25.338269812235097       26.669672674892748       26.669618096018347       28.67059494569066        28.67054050888819        29.999999999999996       29.999999999999996       32                       32                       850.0000000000001        850.0000000000001
0.02                     -850.0000000000001       -850.0000000000001       1.220394206049999        3.2205421360413093       4.851929104284691        4.851959634550267        6.855024744877394        6.855053983436436        8.251268149237426        8.25138393927113         10.25559931192493        10.255713378091949       11.501282653828596       11.501470038042829       13.505463810787555       13.505648646926737       14.831786342191783       14.832102704777041       16.83595923685077        16.836272006606396       18.119678723934904       18.11996432733768        20.12403078656509        20.124312476985082       21.510835666771236       21.51064975785159        23.51432301796392        23.51413529562652        25.038583926839266       25.03918732052981        27.04221534253673        27.042814767711775       27.66684342521957        27.66967212739449        29.658157164304484       29.66099155293883        29.999999999999996       29.999999999999996       32                       32                       850.0000000000001        850.0000000000001        -850.0000000000001       -850.0000000000001       0.2988307144401688       2.300205333030805        3.582343217686452        3.582333239936186        5.583633273186668        5.583623266014357        6.791127176665871        6.791110016278214        8.792382429682572        8.792365228826856        10.015148276777545       10.015130876244044       12.016486026587142       12.016468583013397       13.312881482697716       13.312872456510311       15.314249582321942       15.314240488142387       16.65910292480858        16.659105259593808       18.660484499902584       18.660486744437186       20.0076402507899         20.007638766372988       22.009047023110174       22.00904544827173        23.34405479385158        23.344016013928112       25.345473754885095       25.345434882348865       26.673571545282076       26.673468583952953       28.674993724723404       28.674890648834374       29.999999999999996       29.999999999999996       32                       32                       850.0000000000001        850.0000000000001
0.03                     -850.0000000000001       -850.0000000000001       2.0120896252708933       4.009573879194414        6.036185852751301        6.036042095546116        8.030990950639772        8.030848426465145        9.946119391462862        9.945973081591257        11.949604663650394       11.949459375907072       13.12165979326654        13.121726734423993       15.124648505699081       15.124718503362917       16.151853232284413       16.152055473369916       18.15529442938458        18.155497216396668       19.523559762160637       19.522670932828227       21.52578540660657        21.524909955473905       23.404267943743754       23.403032153589574       25.404595558940517       25.403347835585404       26.605721397932147       26.608142436163973       28.60023114405413        28.602737316468605       28.1050710934142         28.11035437813852        30.068724547610483       30.0739574529414         29.999999999999996       29.999999999999996       32                       32                       850.0000000000001        850.0000000000001        -850.0000000000001       -850.0000000000001       0.29645236476617226      2.297642022159439        3.615028244861874        3.615017628460592        5.61635671799761         5.616346089793825        6.86823991643685         6.868223117589552        8.869524093833927        8.869507277452884        10.070449467575232       10.070438463290618       12.071724704391977       12.071713696199307       13.30737235981126        13.307376848131934       15.308724691046297       15.308729150413377       16.623929033986943       16.623940774214812       18.625281491879782       18.625293190859164       19.985960200572038       19.985955462392788       21.9873126555508         21.987307896031524       23.342958860145377       23.342919615930555       25.34434086278993        25.34430157436799        26.676793938979376       26.676706515079523       28.67818811631364        28.67810065263982        29.999999999999996       29.999999999999996       32                       32                       850.0000000000001        850.0000000000001
0.04                     -850.0000000000001       -850.0000000000001       2.887608284952646        4.883675549359853        7.053569895209819        7.053163081034354        9.038469780254694        9.038064346333739        11.497529702034406       11.497458179172153       13.495173475519431       13.495093538659122       14.812182769438003       14.812573203287421       16.812018231428983       16.812406552609783       17.613062121531105       17.61235277876485        19.614581951813634       19.613866490541344       21.31936354543357        21.316919023168566       23.313858628521118       23.31142357495882        25.35757210974226        25.357034038817567       27.358079063328265       27.35752480363863        27.794478807745175       27.799792042494133       29.76086541175079        29.766368287398162       28.42276575634206        28.430091550984773       30.358753857017387       30.365908310892404       29.999999999999996       29.999999999999996       32                       32                       850.0000000000001        850.0000000000001        -850.0000000000001       -850.0000000000001       0.2702809604849582       2.271373658727721        3.6011806508498094       3.6011705961580622       5.602411892136419        5.60240184281461         6.897103333312311        6.897094183325401        8.89832333263618         8.898314193517228        10.128441400439632       10.128444159420448       12.12960283508521        12.1296056244266         13.340887889663044       13.340902359356477       15.342078618858539       15.342093108025392       16.607032745110462       16.60704870604121        18.608272518488736       18.60828848898059        19.945416557929413       19.945423479125957       21.946633049853144       21.94663998673475        23.314770072787855       23.314751814751098       25.315994832442744       25.315976608867743       26.668978242282357       26.668900038582006       28.67023160871317        28.670153498804556       29.999999999999996       29.999999999999996       32                       32                       850.0000000000001        850.0000000000001
0.05                     -850.0000000000001       -850.0000000000001       3.964604050543459        5.960680324611644        8.140764018797197        8.14077385039494         10.124662719101304       10.12466221155285        12.703400749985365       12.703965099951867       14.698019350832023       14.69857752000302        16.3528212560893         16.352819324772632       18.354904726960687       18.35490134216719        19.608469582546512       19.605965434378373       21.609849750295233       21.60735656954786        23.459708537582156       23.45638299650801        25.45624370834413        25.45289886191774        27.055811570123605       27.05694622352996        29.054401992907714       29.05559689112988        28.717212273248606       28.72527428850202        30.651975656427652       30.660282063407273       28.681467465378244       28.690241178245316       30.593261213495957       30.60173200274291        29.999999999999996       29.999999999999996       32                       32                       850.0000000000001        850.0000000000001        -850.0000000000001       -850.0000000000001       0.2556704638870761       2.256756429944412        3.5845889657886127       3.5845858527110437       5.585766675232101        5.585763565635198        6.897011297911793        6.8970125244130225       8.898181746994858        8.898182980243691        10.162643214602205       10.162655300073016       12.163775583832601       12.16378769174771        13.387974303402721       13.387999730832524       15.389080733902533       15.389106187706576       16.62226904887039        16.622303896973747       18.623422198022645       18.623457040942537       19.913906481141098       19.91392324107849        21.915079949565442       21.915096710636536       23.268905744463634       23.268846656963426       25.270045842403366       25.269986890165857       26.647950356873725       26.64779557313542        28.649097301178706       28.64894259693591        29.999999999999996       29.999999999999996       32                       32                       850.0000000000001        850.0000000000001
0.06                     -850.0000000000001       -850.0000000000001       5.218492903586878        7.215418198530084        9.213797360277217        9.214665741127487        11.203160977966936       11.20401527216941        13.700534115350601       13.70135807539185        15.69100567458058        15.691851840664754       17.919544090153977       17.918061982178394       19.915362613702595       19.913928683397053       21.966765793864997       21.962403308710897       23.9632049971625         23.958866424188912       25.817120493352988       25.813906892761246       27.817254844518285       27.8140291789448         28.605259074085822       28.608773909775636       30.586799738805613       30.590525341562444       29.393980310110372       29.40474613210662        31.29117801854297        31.302195698547724       28.84259452439394        28.852571942156803       30.735957280756473       30.74549841055881        29.999999999999996       29.999999999999996       32                       32                       850.0000000000001        850.0000000000001        -850.0000000000001       -850.0000000000001       0.2529600037332626       2.2540621388918747       3.5782761658174658       3.5782800973424385       5.579445593118046        5.579449527164984        6.8926500391886725       6.892662312631861        8.893811184107397        8.893823464855435        10.176687922909348       10.17672018950396        12.177826708207606       12.177858995523842       13.421508298141855       13.42156713388           15.422611657898472       15.422670503981267       16.649053529495603       16.649106600555168       18.650170485043784       18.650223469113286       19.908523288835788       19.908484608024136       21.909691281109655       21.90965254458809        23.24154849862498        23.241347375842732       25.24268140476543        25.24248048400352        26.631866049849506       26.631585307790466       28.63296200109902        28.632681121375306       29.999999999999996       29.999999999999996       32                       32                       850.0000000000001        850.0000000000001
0.07                     -850.0000000000001       -850.0000000000001       6.742875478432513        8.74081299358328         10.318416040451064       10.31970400922765        12.31306069230375        12.314346258581459       14.685778298209883       14.685546997470771       16.665774787565418       16.665621869153753       19.62046560740494        19.616619950353833       21.591775074574954       21.588044266885028       24.43612948336026        24.43044503809632        26.422335018187624       26.416641392425646       28.17446451338662        28.172355528285085       30.169893644018575       30.167837284585968       30.014578262708035       30.020612082330725       31.955494742414192       31.961895519584893       29.89111029249616        29.90374206466535        31.745813873568547       31.758641878839665       28.97067747120152        28.981189100182718       30.84926230374661        30.85925339323626        29.999999999999996       29.999999999999996       32                       32                       850.0000000000001        850.0000000000001        -850.0000000000001       -850.0000000000001       0.25450868962414525      2.2556165218874473       3.5794172532907216       3.579427514995783        5.580596117246097        5.5806063894377695       6.892786359623188        6.892825271240918        8.89395933303994         8.893998258980558        10.179874191802412       10.179957711641027       12.181029490412383       12.181113031079718       13.43405767321823        13.434156647107297       15.435185707758292       15.435284628395149       16.670426672110025       16.670441708958183       18.671561233316993       18.67157606893805        19.92925257364558        19.929072717987662       21.930431536652033       21.930251606134505       23.253064626556338       23.252699175295756       25.254220586176842       25.253855277293294       26.634642708405735       26.6342907136071         28.635758668210073       28.63540634294312        29.999999999999996       29.999999999999996       32                       32                       850.0000000000001        850.0000000000001
0.08                     -850.0000000000001       -850.0000000000001       8.474749232272748        10.473012514172904       11.701149330539007       11.70180891210323        13.695807074362728       13.69646733919425        15.97038417965016        15.968789911965871       17.94062003155869        17.939128043026628       21.39497935006685        21.3901903645411         23.341159038369412       23.336469984705012       26.630116448212434       26.625298271831802       28.6100841216455         28.60520586259139        30.1384877512696         30.138765075787674       32.12263275198503        32.12304054526774        31.2053007149459         31.21345284916411        33.10166215371937        33.110215140589986       30.406303034717837       30.419466728399318       32.22463879516977        32.23790500736294        29.167289961830825       29.177492526534138       31.027105398089063       31.036750074935973       29.999999999999996       29.999999999999996       32                       32                       850.0000000000001        850.0000000000001        -850.0000000000001       -850.0000000000001       0.2560517180806429       2.2571589682275097       3.5817694677365894       3.5818104348221285       5.58295945027362         5.58300042974239         6.892829582948107        6.892932141962231        8.894016624372435        8.894119198256076        10.17531580714374        10.175463069693311       12.176487199088415       12.176634449119595       13.433358390402974       13.433450369703671       15.434516052274324       15.43460788343142        16.688401164514524       16.688300208796672       18.689572512551393       18.68947135822811        19.9681838277345         19.967844661463715       21.969377504068294       21.969038329603734       23.29280892541492        23.292365063480922       25.29399043051001        25.293546577495125       26.65153921894301        26.651216088001423       28.652706749467225       28.65238333880962        29.999999999999996       29.999999999999996       32                       32                       850.0000000000001        850.0000000000001
0.09                     -850.0000000000001       -850.0000000000001       10.217870789697418       12.216552602500826       13.472126555267046       13.471113438222716       15.46767936122553        15.466671431351223       17.75036609177813        17.747513024609397       19.72108343180001        19.71828740472868        23.175649713247463       23.171708438102893       25.123580559282313       25.11963727249864        28.31396745367232        28.311866297944118       30.29874596379162        30.296569701790816       31.54218367420432        31.54537830095079        33.51958202819605        33.52293153534792        32.21981462553342        32.229208635872396       34.093635613210196       34.10334996374387        31.024116625648347       31.036802120668927       32.81249897476727        32.825220475276744       29.388408302598492       29.397979430058818       31.225250261175418       31.234252043129842       29.999999999999996       29.999999999999996       32                       32                       850.0000000000001        850.0000000000001        -850.0000000000001       -850.0000000000001       0.2560560977179532       2.2571731912499433       3.579898933726599        3.580014787548576        5.5810930949819735       5.5812089504923215       6.885422513522438        6.885620313594228        8.886614280524796        8.886812080282203        10.164560952311433       10.16473961775898        12.165742136001821       12.165920706992955       13.43207934231664        13.432089196523652       15.433260054621222       15.43326972448367        16.71163143937086        16.71138344091605        18.712822687628222       18.712574600429136       20.01447395144717        20.01404547194348        22.015670168027494       22.015241693204263       23.337835807302497       23.337433284059504       25.339032220099895       25.33862962368997        26.67013586928137        26.669906573181226       28.671334615829693       28.67110519996742        29.999999999999996       29.999999999999996       32                       32                       850.0000000000001        850.0000000000001
0.1                      -850.0000000000001       -850.0000000000001       11.92070374069016        13.919319652474488       15.470197875587788       15.467142251006866       17.466108635904906       17.46307815702368        19.871633016438732       19.867425997229766       21.848563347689723       21.844353340072935       24.97656783442694        24.973845396585023       26.944334725622703       26.941518952318305       29.675565008495628       29.67656499286678        31.669484442382082       31.670427981866034       32.62840907155739        32.63425810755464        34.60464028837114        34.6106238045463         33.1480728346665         33.158175433566214       35.01191514203514        35.02224448020533        31.62247135663173        31.634790995459856       33.37551336251105        33.38786157252571        29.520031141151517       29.529520383651494       31.33532495441837        31.34421752540749        29.999999999999996       29.999999999999996       32                       32                       850.0000000000001        850.0000000000001        -850.0000000000001       -850.0000000000001       0.253063518814476        2.25420378941981         3.57144820587233         3.5716537099290306       5.5726327675451195       5.572838271430236        6.869722308945503        6.870001207054602        8.87090301485223         8.871181883022572        10.152575356840805       10.15273008710023        12.153753523471732       12.153908117930538       13.438680116483662       13.438569066015214       15.439861654009293       15.439750496552595       16.742293439997077       16.741939326437453       18.743476047236626       18.743121914802863       20.057923217866517       20.057507173915663       22.05910702237192        22.058690940797167       23.37278416905409        23.37249957808011        25.373973538674708       25.373688891342443       26.682915630526516       26.68278888239268        28.68410980620631        28.683983034806534       29.999999999999996       29.999999999999996       32                       32                       850.0000000000001        850.0000000000001
0.11                     -850.0000000000001       -850.0000000000001       13.61688096474837        15.614431772794164       17.501661874395065       17.496561139344877       19.49276673827213        19.487728745086397       22.105637506212286       22.099882711070027       24.086854498407444       24.081049682976058       26.838602780854988       26.836646884822088       28.824263592216052       28.82218566596467        30.997860141078572       31.001339100602674       32.997496139357835       33.00095307782285        33.65987213369793        33.66792387733219        35.633317518281636       35.641485596415684       34.00435566737798        34.015562795168506       35.85194034865634        35.863337876141735       32.0809761246658         32.09421743197178        33.79016949786718        33.80346549283819        29.551963795961687       29.562362034029817       31.352207655837322       31.361909632842043       29.999999999999996       29.999999999999996       32                       32                       850.0000000000001        850.0000000000001        -850.0000000000001       -850.0000000000001       0.24720633801218386      2.2483697467568806       3.5593462451353557       3.5595914248919693       5.560507616032657        5.5607528032005975       6.8530396384543995       6.853328216594229        8.854196132041313        8.854484660798702        10.146364835559254       10.1464547062086         12.147522216093456       12.147612014771767       13.454127563926098       13.453926289345          15.455283771694369       15.455082494324222       16.775099131006936       16.774725709873568       18.776253870995077       18.775880423872536       20.092151048579147       20.091823205990156       22.093308658619247       22.092980770496094       23.394391614894626       23.39423888066218        25.39555155238614        25.395398810350756       26.68933533534617        26.689286747027904       28.690499846295655       28.690451249016192       29.999999999999996       29.999999999999996       32                       32                       850.0000000000001        850.0000000000001