% Model:              jellyFish_twobar_fine_fsi_Inflow_demo_uf_freqinf.mph
% Version:            COMSOL 6.0.0.318
% Date:               Jun 25 2023, 23:19
% Table:              Table 14 - Point Evaluation 3
% Time (s)               x-coordinate (mm), Point: 1x-coordinate (mm), Point: 2x-coordinate (mm), Point: 3x-coordinate (mm), Point: 4x-coordinate (mm), Point: 5x-coordinate (mm), Point: 6x-coordinate (mm), Point: 7x-coordinate (mm), Point: 8x-coordinate (mm), Point: 9x-coordinate (mm), Point: 10x-coordinate (mm), Point: 11x-coordinate (mm), Point: 12x-coordinate (mm), Point: 13x-coordinate (mm), Point: 14x-coordinate (mm), Point: 15x-coordinate (mm), Point: 16x-coordinate (mm), Point: 17x-coordinate (mm), Point: 18x-coordinate (mm), Point: 19x-coordinate (mm), Point: 20x-coordinate (mm), Point: 21x-coordinate (mm), Point: 22x-coordinate (mm), Point: 23x-coordinate (mm), Point: 24x-coordinate (mm), Point: 25x-coordinate (mm), Point: 26x-coordinate (mm), Point: 27x-coordinate (mm), Point: 28x-coordinate (mm), Point: 29x-coordinate (mm), Point: 30x-coordinate (mm), Point: 31x-coordinate (mm), Point: 32x-coordinate (mm), Point: 33x-coordinate (mm), Point: 34x-coordinate (mm), Point: 35x-coordinate (mm), Point: 36x-coordinate (mm), Point: 37x-coordinate (mm), Point: 38x-coordinate (mm), Point: 39x-coordinate (mm), Point: 40x-coordinate (mm), Point: 41x-coordinate (mm), Point: 42
0                        -850.0000000000001       -850.0000000000001       0.008660261264422207     2.009460722668099        3.3324880426606587       3.332491449229698        5.3325366228678455       5.332539457797383        6.666910039815591        6.666909697864067        8.666912813746245        8.66691253779274         9.999974039667624        9.999973860470073        11.999974373511916       11.999974228853715       13.332985177200573       13.332985016786402       15.332985407573178       15.332985252469982       16.666989902026234       16.6669895850354         18.666990129479494       18.66698980972673        19.99999273593447        19.99999254911816        21.99999296395289        21.999992777844117       23.33299464658061        23.332994552348605       25.332994883786036       25.33299478683034        26.666996294509193       26.66699624134121        28.666996550367223       28.666996494465558       29.999999999999996       29.999999999999996       32                       32                       850.0000000000001        850.0000000000001
0.01                     -850.0000000000001       -850.0000000000001       0.42915549685484533      2.4341489644408263       3.403052673918768        3.4030435414397915       5.403790891841269        5.4037817159303625       6.55714058207154         6.557143386187175        8.558745183829497        8.558748009979581        9.98524822679661         9.985235804570964        11.986959067169801       11.986946816934994       13.348354040930449       13.34833474761015        15.35024027622176        15.350221160116728       16.671869737968933       16.67184779841149        18.67372959176022        18.673707911374212       20.00298605142518        20.00297168464509        22.00485487190143        22.004840784968458       23.334405968570298       23.334414914109594       25.336288255350752       25.336297451950145       26.668133634922487       26.668066025693328       28.670012896357836       28.66994570428435        29.999999999999996       29.999999999999996       32                       32                       850.0000000000001        850.0000000000001
0.02                     -850.0000000000001       -850.0000000000001       0.8282081263164704       2.83451603384378         3.6803253136679492       3.680312901397402        5.67989284657228         5.679880102036209        6.457093740530368        6.4570701364118195       8.45985733765995         8.459833634947763        9.802352746449149        9.802334963928523        11.80506115397779        11.805043257012278       13.33194820645447        13.331912160409416       15.33511529770872        15.335079171525106       16.699942382382158       16.69991498623468        18.70339664005769        18.703369039819055       19.995871807335003       19.995905482153283       21.999273885917184       21.999307265519462       23.323824107650474       23.323831489000963       25.327201299693208       25.327208536310245       26.66946519887289        26.66924143177679        28.67285217108984        28.672628407827478       29.999999999999996       29.999999999999996       32                       32                       850.0000000000001        850.0000000000001
0.03                     -850.0000000000001       -850.0000000000001       1.1589869396819514       3.165813904415163        3.984932619842522        3.9848482711702236       5.983716878650575        5.983631609724071        6.476493329711931        6.476397214767128        8.477952824746392        8.477856955515653        9.568751014118734        9.568692897001375        11.572765506561598       11.572707246681265       13.199270668238011       13.199237630898773       15.202361796788466       15.20232845473494        16.740728471813433       16.74076780766188        18.74520146800677        18.745240495561898       20.02993690288092        20.030048205294797       22.034465602692475       22.034576708999243       23.306489831857792       23.306454611871388       25.310944756398893       25.31090961075736        26.658934830856087       26.658548113549692       28.663355425440596       28.662969040540823       29.999999999999996       29.999999999999996       32                       32                       850.0000000000001        850.0000000000001
0.04                     -850.0000000000001       -850.0000000000001       1.4382025702658976       3.4451814425799094       4.274201246397583        4.274018790479217        6.272756572580306        6.272571992092672        6.568216049852282        6.567988185409742        8.566526891565895        8.566299625738267        9.359808078778405        9.359673524905828        11.364804989353042       11.364670442190244       12.971191682360233       12.971199839421107       14.97361107494986        14.973617580583904       16.733243181186776       16.73341487476794        18.737580072272984       18.737750826403968       20.12090615438835        20.121104494375636       22.126192910454037       22.12639089229757        23.31951260450997        23.3193899815458         25.324703864307622       25.32458071604772        26.635366265557753       26.634761229455673       28.64042545943071        28.639820583831444       29.999999999999996       29.999999999999996       32                       32                       850.0000000000001        850.0000000000001
0.05                     -850.0000000000001       -850.0000000000001       1.6940692474092696       3.7010535182591755       4.543892203164609        4.543597476888428        6.542274205901124        6.5419757916064345       6.688374306082059        6.68796881495368         8.682470507640714        8.682065496807207        9.180423947984899        9.180170665359222        11.18516962786813        11.184917633426576       12.690126061163745       12.6902131591697         14.69210476731746        14.692187686259125       16.654041000666798       16.654423217690326       18.65657010622765        18.656950462797063       20.233716413428052       20.23401328617877        22.239450773492724       22.239747632977394       23.39869485555045        23.39839031191946        25.404188476577453       25.4038820778731         26.63379834643785        26.6329524829558         28.63927178350305        28.6384252683191         29.999999999999996       29.999999999999996       32                       32                       850.0000000000001        850.0000000000001
0.06                     -850.0000000000001       -850.0000000000001       1.9614117756752425       3.968419767688693        4.805033363381554        4.804575801033618        6.802718763622463        6.8022549643856065       6.807017657341804        6.806351689121847        8.796009204851469        8.795343392305819        9.012902379336323        9.012477404744711        11.01591238180479        11.015491979215227       12.377485370350644       12.377674303807414       14.379444121564031       14.37962566436944        16.503900466641614       16.50454209725331        18.503064662725745       18.503703918349          20.336674670077144       20.337023060144105       22.342172007534938       22.342523217361798       23.56026272545362        23.559708381206022       25.565808597726242       25.56525155017481        26.69040574529117        26.689465816699006       28.696079828362002       28.695138874536095       29.999999999999996       29.999999999999996       32                       32                       850.0000000000001        850.0000000000001
0.07                     -850.0000000000001       -850.0000000000001       2.2820017281312204       4.289174288955312        5.076003282883453        5.075324006761848        7.071699133956293        7.071009200001291        6.904524704710775        6.903513531748442        8.887138504663097        8.886127787690684        8.836022267979315        8.835412481088822        10.835882686243846       10.835283695083373       12.035631499954947       12.035947282745852       14.037817314444323       14.038123547306538       16.290215241954243       16.29101836562869        18.284581856842753       18.285385638065257       20.42510379583162        20.42532595883879        22.428681770395453       22.42891327791913        23.804847813415556       23.804134887257316       25.810341154501852       25.809626602805583       26.81330741515859        26.812641264553925       28.81850224818066        28.817836686589914       29.999999999999996       29.999999999999996       32                       32                       850.0000000000001        850.0000000000001
0.08                     -850.0000000000001       -850.0000000000001       2.7093197768627193       4.716909594611719        5.379473204405523        5.378470854509493        7.37045321433338         7.369433108230782        6.965093728040919        6.9636924039558465       8.939189054965333        8.937792402228707        8.628257854136688        8.627547133231506        10.623673449451847       10.622983076067943       11.661536209635907       11.661998735675732       13.663783668016162       13.664237126973143       16.029741789709202       16.03045306149263        18.01759021130274        18.01831236520713        20.508096574281584       20.508002921867824       22.506815518923855       22.50673613181969        24.113763571144506       24.11327266521143        26.11892683794684        26.118436371154456       26.986717410654244       26.986862946711984       28.989977964819335       28.99012576789032        29.999999999999996       29.999999999999996       32                       32                       850.0000000000001        850.0000000000001
0.09                     -850.0000000000001       -850.0000000000001       3.3012542820908597       5.309614975612817        5.742416155632618        5.740907564496317        7.723344484275424        7.721805983743925        6.970109695263439        6.968280824072417        8.932055870540134        8.93024659351178         8.365979397186425        8.365298815303259        10.356151230406917       10.355501948688119       11.26595303305442        11.266459275348174       13.267591236998864       13.268091994522083       15.754492083653451       15.754776370566617       17.734112741967213       17.734421500044704       20.582187234567463       20.581785833167224       22.572862557408886       22.572465794708673       24.437699335981033       24.437974203389484       26.44205609874892        26.442331848207992       27.18125488352046        27.18266150584194        29.18079548726197        29.182200165222483       29.999999999999996       29.999999999999996       32                       32                       850.0000000000001        850.0000000000001
0.1                      -850.0000000000001       -850.0000000000001       4.079346864752694        6.088823744416192        6.186637890967347        6.18463368000921         8.148991984106738        8.146942005926526        6.914296440908294        6.912170155433566        8.858476396513428        8.856394121456015        8.035490331328127        8.034914540593046        10.020620601311613       10.020081584593106       10.879850009942542       10.880148749102494       12.879846719750686       12.880145414658772       15.504910648613498       15.504596351862299       17.475919315058775       17.475631763572938       20.617405526369083       20.617072137677315       22.599116372389283       22.598754061476583       24.689744377374623       24.691325237002772       26.692819502478002       26.69439865642227        27.35071659821825        27.35350466144063        29.345773840319854       29.348545515214557       29.999999999999996       29.999999999999996       32                       32                       850.0000000000001        850.0000000000001
0.11                     -850.0000000000001       -850.0000000000001       4.979724164106029        6.99049362174954         6.707749947001746        6.705606394852202        8.642737536862551        8.640535834970237        6.839195661276447        6.837031866890095        8.759361891250919        8.75725528729715         7.671761413539573        7.671047350251271        9.652689826527508        9.65200578720269         10.540700837871862       10.54040267019846        12.538145129186708       12.537851067745386       15.300355469437488       15.299627184526852       17.264799798523228       17.26407293163552        20.567192109462074       20.567521241378085       22.542971936543726       22.54323092866441        24.77132233083792        24.77438316758073        26.772899019420006       26.77595499812329        27.434220171990418       27.43804091255462        29.426348889237577       29.430135565003013       29.999999999999996       29.999999999999996       32                       32                       850.0000000000001        850.0000000000001
0.12                     -850.0000000000001       -850.0000000000001       5.860406466404422        7.872423101138438        7.267717915206629        7.265854694609185        9.173521607710958        9.17159216178423         6.836807162962158        6.834625185673037        8.730209245013208        8.7280548172282          7.374713118878391        7.373192881675683        9.35188715198149         9.350380928240078        10.275848735827909       10.274567660933183       12.271020426569649       12.269738131826045       15.118336705054325       15.117656707972591       17.080408385946612       17.07967591154966        20.393384648889338       20.394994962250625       22.368470896978373       22.36998403542052        24.6275012131824         24.6320154448553         26.6279488475248         26.63245710205214        27.38685140077627        27.391228957971595       29.379467033113535       29.383798568238422       29.999999999999996       29.999999999999996       32                       32                       850.0000000000001        850.0000000000001
0.13                     -850.0000000000001       -850.0000000000001       6.598095603778286        8.611132171364549        7.825712914161037        7.824351108926101        9.711247043756028        9.70981023794192         6.9899808071880045       6.987644100218734        8.85972735714483         8.857345627548215        7.241489414120806        7.238669873563988        9.214384519287176        9.211560558462152        10.090067884905734       10.08766029060196        12.085146517118812       12.08272388830097        14.910727158180023       14.910405447553783       16.87532477355486        16.8748922991428         20.08648041286181        20.089537205728128       22.064759289705822       22.06771302515214        24.288785161514866       24.294385367340883       26.289041860787364       26.294637857148174       27.22183690340528        27.226190777223525       29.21786033290549        29.222170253434378       29.999999999999996       29.999999999999996       32                       32                       850.0000000000001        850.0000000000001
0.14                     -850.0000000000001       -850.0000000000001       7.189046879533901        9.20272232226257         8.378240411969307        8.377220461627385        10.256357820357248       10.255247825204178       7.315475525853389        7.312720972113364        9.166941145136878        9.164057375361345        7.283798069515276        7.279567941846968        9.250290539667356        9.246042704413277        9.949322499915702        9.94597863265459         11.946856604098954       11.943486559682487       14.631946265325412       14.632232833725537       16.60255092249855        16.602683583859946       19.66345771780535        19.667971976804974       21.645853866108915       21.65027058806952        23.843555241139356       23.849906966297215       25.84425894755322        25.850611774176855       27.005510320109025       27.00942586792762        29.00550532358067        29.009391445358386       29.999999999999996       29.999999999999996       32                       32                       850.0000000000001        850.0000000000001
0.15                     -850.0000000000001       -850.0000000000001       7.724370061900768        9.738228312602018        8.9539769616965          8.952748604400679        10.832986652131257       10.83163986791598        7.780442121300016        7.776807396468918        9.616641239808379        9.612812974791881        7.446409622448346        7.440781576253979        9.402104697923365        9.396457833326055        9.796000788973313        9.791989235886565        11.796721426042609       11.792687065856345       14.247373074929367       14.248429517624634       16.22494764825709        16.22582779375193        19.14785962361752        19.153734625128287       21.132766391923575       21.13855227888356        23.376941142382794       23.383755417063554       25.377436602866492       25.38426462714861        26.804636991275974       26.8079181728248         28.807059402040693       28.810333197019336       29.999999999999996       29.999999999999996       32                       32                       850.0000000000001        850.0000000000001
0.16                     -850.0000000000001       -850.0000000000001       8.309184089773193        10.322904739905955       9.579338188550755        9.577475289516528        11.460387596376403       11.458368385796248       8.340368871624088        8.33559846739501         10.161999351009577       10.15700463330981        7.682280820025919        7.675546674644189        9.620908693264766        9.614174309542491        9.593359824248191        9.589113159588887        11.595365570292689       11.591123789574139       13.7332454436426         13.735169365049963       15.717069615052093       15.718820215632842       18.551440473932036       18.558346590381912       20.535651837925634       20.542480103117235       22.936038651142507       22.94290871835646        24.934073255806577       24.940981326100577       26.650396394529015       26.652975539041226       28.653034941447512       28.65563021396123        29.999999999999996       29.999999999999996       32                       32                       850.0000000000001        850.0000000000001
0.17                     -850.0000000000001       -850.0000000000001       9.001778026363622        11.015245056564883       10.25755937298809        10.254537262356035       12.136803129279057       12.133570449820299       8.95663679395277         8.950339347147736        10.764737321407855       10.758224834542723       7.986005274934307        7.978399586919382        9.901361993999567        9.893808889425           9.359073430938448        9.355034750805093        11.357502280114655       11.353522818291408       13.093450830592472       13.096242056258612       15.082554690273218       15.085200284199296       17.871322497899147       17.87878005310943        19.851185364074478       19.85857951804012        22.5141894306123         22.52076325954527        24.506191469351513       24.512834902470765       26.532060858413633       26.5340872337329         28.53294468346694        28.53500548761011        29.999999999999996       29.999999999999996       32                       32                       850.0000000000001        850.0000000000001
0.18                     -850.0000000000001       -850.0000000000001       9.788461856151521        11.801628380634854       10.968698741785985       10.964154406976435       12.841367102295067       12.83654787254623        9.599183153007207        9.59123736848871         11.39611631752711        11.388013294345859       8.368523275489384        8.360539762709193        10.25740964629728        10.24957307888419        9.16541770558526         9.162153032979463        11.152862596060347       11.149729734370881       12.394338864715877       12.397845553799863       14.38798743910273        14.391400767172419       17.10649437190815        17.113793440236652       19.08038860726582        19.08764680984591        22.04617214470524        22.05205796991562        24.02819239888742        24.034176132675675       26.40002336541832        26.40158377367048        28.39709376672766        28.398703905834786       29.999999999999996       29.999999999999996       32                       32                       850.0000000000001        850.0000000000001
0.19                     -850.0000000000001       -850.0000000000001       10.593474247255216       12.606253769877695       11.680815271948951       11.674669222066944       13.545350653612989       13.538868181571535       10.247973816623455       10.238592233805424       12.03631338884264        12.026871843071818       8.823668913021887        8.815885117032304        10.687783471055567       10.680263839706978       9.100270615376868        9.098141798680189        11.070196338419102       11.068263447242716       11.766049952907256       11.769956976819824       13.762877413696158       13.766748196996806       16.28734931900156        16.293857163662192       18.258739397935535       18.26523486643329        21.446484007177705       21.451221928784356       23.416347396864833       23.421202979243983       26.184362982366007       26.18522835451257        28.17429042545218        28.175217923888763       29.999999999999996       29.999999999999996       32                       32                       850.0000000000001        850.0000000000001
0.2                      -850.0000000000001       -850.0000000000001       11.33425202954155        13.346578784148173       12.356301352620394       12.349242591644426       14.215075166036158       14.207653444913989       10.886575083402972       10.876687649939564       12.669259280712119       12.659403830517478       9.335393155126242        9.328407152561242        11.180559304322571       11.173927930074704       9.215369281847012        9.214476128041008        11.165693122433716       11.1650330241861         11.32561929759988        11.329780594533029       13.322468225157523       13.32663354324277        15.481409936377478       15.486902996650707       17.457042455002515       17.462552773753437       20.69387493130086        20.697056613019402       22.652860925054128       22.656181246018388       25.849439407069976       25.849164244172144       27.826367814976443       27.826156465013668       29.999999999999996       29.999999999999996       32                       32                       850.0000000000001        850.0000000000001
0.21                     -850.0000000000001       -850.0000000000001       11.964220416643563       13.976022256945287       12.953751456496724       12.947023978681397       14.810235069063497       14.80317083651286        11.495486246792892       11.48640027055818        13.277475022100193       13.268460344549096       9.899217841623416        9.893400067077682        11.732918276650558       11.727474753273086       9.510284678972878        9.510356505098269        11.441995243452945       11.442312561648158       11.105177124963792       11.109443451344704       13.097081844038495       13.101370859951677       14.764851654660983       14.769275225049515       16.748262384314906       16.75272260642849        19.877993664866576       19.879243138870727       21.82930701755539        21.83072340264026        25.44064820321535        25.43887974406433        27.39726154784309        27.3955240617101         29.999999999999996       29.999999999999996       32                       32                       850.0000000000001        850.0000000000001
0.22                     -850.0000000000001       -850.0000000000001       12.455991918086827       14.467151251605548       13.440110995226314       13.43491554651371        15.297828729625214       15.292373455640965       12.059412328361509       12.052376327702635       13.847407319839332       13.84042939455795        10.508419871127945       10.504090371523276       12.337325110332687       12.333310791909453       9.941136189506684        9.941733674427987        11.855484357487603       11.85630870080729        11.068577483990538       11.072446456667635       13.050525250749404       13.054417479478083       14.20703476550985        14.21007461002518        16.19651986239665        16.19959524975763        19.15383940942588        19.153055318074458       21.100352979468134       21.099747699912175       25.056215109765663       25.053206797645487       26.988791685867          26.985733037466595       29.999999999999996       29.999999999999996       32                       32                       850.0000000000001        850.0000000000001
0.23                     -850.0000000000001       -850.0000000000001       12.795705505601148       14.806257765841258       13.813591198364804       13.81063041581753        15.676968812739494       15.673861990059226       12.573482018484187       12.569436950559794       14.372759856141347       14.368745560750211       11.125395719742551       11.122973676677917       12.953742973501264       12.95151670610943        10.432533911769172       10.433220745179055       12.331610087030528       12.332451117435989       11.168798834095346       11.171296382828842       13.138923871946952       13.14142461677547        13.871684012863037       13.872598677031238       15.864124080717527       15.865060997619914       18.66457848488057        18.661821328218803       20.60871808398198        20.606112491219648       24.791400991649766       24.787649395003406       26.704363326717292       26.70045562972845        29.999999999999996       29.999999999999996       32                       32                       850.0000000000001        850.0000000000001
0.24                     -850.0000000000001       -850.0000000000001       13.015005313007777       15.025356297483613       14.113776186516883       14.113351787132977       15.986896063817792       15.986453440948022       13.036174504583641       13.035675721017492       14.847680197265678       14.847198756433214       11.687336206526755       11.687321259864165       13.516963841604522       13.516998470049465       10.905516274344988       10.90613146600014        12.794088540742026       12.79472306812337        11.372574599685974       11.37286176382461        13.334040341225435       13.33428749201537        13.795008736788217       13.793091718765192       15.789109628700796       15.787204912166588       18.48552650326328        18.480775950385272       20.42968900559945        20.425035603764364       24.70126686331908        24.696832943220713       26.60624008022982        26.601564735509186       29.999999999999996       29.999999999999996       32                       32                       850.0000000000001        850.0000000000001
0.25                     -850.0000000000001       -850.0000000000001       13.191067421188          15.201788456721484       14.404810465210057       14.406842894494908       16.289349375402374       16.291483406555884       13.454322747664843       13.457400287005553       15.27443595696364        15.277529607315833       12.149016625439481       12.151545885158988       13.979867677297323       13.982299829740963       11.306371154757572       11.30694041858905        13.190739798056443       13.191163725409485       11.642026053959608       11.639821333008172       13.601025098327533       13.598721230222257       13.952717703177338       13.9475998039279         15.948802214511392       15.943693289696078       18.60576578142704        18.598599997378308       20.551787831362226       20.544670559969077       24.787601448491284       24.7818360630776         26.69789112061576        26.691827059519465       29.999999999999996       29.999999999999996       32                       32                       850.0000000000001        850.0000000000001