% Model:              jellyFish_twobar_fine_fsi_Inflow_demo_uf_freqinf2_example.mph
% Version:            COMSOL 6.0.0.405
% Date:               Jun 28 2023, 16:26
% Table:              Table 5 - Point Evaluation 4
% Time (s)               Y-coordinate (mm), Point: 1Y-coordinate (mm), Point: 2Y-coordinate (mm), Point: 3Y-coordinate (mm), Point: 4Y-coordinate (mm), Point: 5Y-coordinate (mm), Point: 6Y-coordinate (mm), Point: 7Y-coordinate (mm), Point: 8Y-coordinate (mm), Point: 9Y-coordinate (mm), Point: 10Y-coordinate (mm), Point: 11Y-coordinate (mm), Point: 12Y-coordinate (mm), Point: 13Y-coordinate (mm), Point: 14Y-coordinate (mm), Point: 15Y-coordinate (mm), Point: 16Y-coordinate (mm), Point: 17Y-coordinate (mm), Point: 18Y-coordinate (mm), Point: 19Y-coordinate (mm), Point: 20Y-coordinate (mm), Point: 21Y-coordinate (mm), Point: 22Y-coordinate (mm), Point: 23Y-coordinate (mm), Point: 24Y-coordinate (mm), Point: 25Y-coordinate (mm), Point: 26Y-coordinate (mm), Point: 27Y-coordinate (mm), Point: 28Y-coordinate (mm), Point: 29Y-coordinate (mm), Point: 30Y-coordinate (mm), Point: 31Y-coordinate (mm), Point: 32Y-coordinate (mm), Point: 33Y-coordinate (mm), Point: 34Y-coordinate (mm), Point: 35Y-coordinate (mm), Point: 36Y-coordinate (mm), Point: 37Y-coordinate (mm), Point: 38Y-coordinate (mm), Point: 39Y-coordinate (mm), Point: 40Y-coordinate (mm), Point: 41Y-coordinate (mm), Point: 42
0                        -850.0000000000001       850.0000000000001        0                        0                        -10.599                  10.599                   -10.599                  10.599                   -21.199                  21.199                   -21.199                  21.199                   -31.798000000000005      31.798000000000005       -31.798000000000005      31.798000000000005       -42.397                  42.397                   -42.397                  42.397                   -52.997                  52.997                   -52.997                  52.997                   -63.59600000000001       63.59600000000001        -63.59600000000001       63.59600000000001        -74.195                  74.195                   -74.195                  74.195                   -84.79500000000002       84.79500000000002        -84.79500000000002       84.79500000000002        -95.394                  95.394                   -95.394                  95.394                   -850.0000000000001       850.0000000000001
0.01                     -850.0000000000001       850.0000000000001        0                        0                        -10.599                  10.599                   -10.599                  10.599                   -21.199                  21.199                   -21.199                  21.199                   -31.798000000000005      31.798000000000005       -31.798000000000005      31.798000000000005       -42.397                  42.397                   -42.397                  42.397                   -52.997                  52.997                   -52.997                  52.997                   -63.59600000000001       63.59600000000001        -63.59600000000001       63.59600000000001        -74.195                  74.195                   -74.195                  74.195                   -84.79500000000002       84.79500000000002        -84.79500000000002       84.79500000000002        -95.394                  95.394                   -95.394                  95.394                   -850.0000000000001       850.0000000000001
0.02                     -850.0000000000001       850.0000000000001        0                        0                        -10.599                  10.599                   -10.599                  10.599                   -21.199                  21.199                   -21.199                  21.199                   -31.798000000000005      31.798000000000005       -31.798000000000005      31.798000000000005       -42.397                  42.397                   -42.397                  42.397                   -52.997                  52.997                   -52.997                  52.997                   -63.59600000000001       63.59600000000001        -63.59600000000001       63.59600000000001        -74.195                  74.195                   -74.195                  74.195                   -84.79500000000002       84.79500000000002        -84.79500000000002       84.79500000000002        -95.394                  95.394                   -95.394                  95.394                   -850.0000000000001       850.0000000000001
0.03                     -850.0000000000001       850.0000000000001        0                        0                        -10.599                  10.599                   -10.599                  10.599                   -21.199                  21.199                   -21.199                  21.199                   -31.798000000000005      31.798000000000005       -31.798000000000005      31.798000000000005       -42.397                  42.397                   -42.397                  42.397                   -52.997                  52.997                   -52.997                  52.997                   -63.59600000000001       63.59600000000001        -63.59600000000001       63.59600000000001        -74.195                  74.195                   -74.195                  74.195                   -84.79500000000002       84.79500000000002        -84.79500000000002       84.79500000000002        -95.394                  95.394                   -95.394                  95.394                   -850.0000000000001       850.0000000000001
0.04                     -850.0000000000001       850.0000000000001        0                        0                        -10.599                  10.599                   -10.599                  10.599                   -21.199                  21.199                   -21.199                  21.199                   -31.798000000000005      31.798000000000005       -31.798000000000005      31.798000000000005       -42.397                  42.397                   -42.397                  42.397                   -52.997                  52.997                   -52.997                  52.997                   -63.59600000000001       63.59600000000001        -63.59600000000001       63.59600000000001        -74.195                  74.195                   -74.195                  74.195                   -84.79500000000002       84.79500000000002        -84.79500000000002       84.79500000000002        -95.394                  95.394                   -95.394                  95.394                   -850.0000000000001       850.0000000000001
0.05                     -850.0000000000001       850.0000000000001        0                        0                        -10.599                  10.599                   -10.599                  10.599                   -21.199                  21.199                   -21.199                  21.199                   -31.798000000000005      31.798000000000005       -31.798000000000005      31.798000000000005       -42.397                  42.397                   -42.397                  42.397                   -52.997                  52.997                   -52.997                  52.997                   -63.59600000000001       63.59600000000001        -63.59600000000001       63.59600000000001        -74.195                  74.195                   -74.195                  74.195                   -84.79500000000002       84.79500000000002        -84.79500000000002       84.79500000000002        -95.394                  95.394                   -95.394                  95.394                   -850.0000000000001       850.0000000000001
0.06                     -850.0000000000001       850.0000000000001        0                        0                        -10.599                  10.599                   -10.599                  10.599                   -21.199                  21.199                   -21.199                  21.199                   -31.798000000000005      31.798000000000005       -31.798000000000005      31.798000000000005       -42.397                  42.397                   -42.397                  42.397                   -52.997                  52.997                   -52.997                  52.997                   -63.59600000000001       63.59600000000001        -63.59600000000001       63.59600000000001        -74.195                  74.195                   -74.195                  74.195                   -84.79500000000002       84.79500000000002        -84.79500000000002       84.79500000000002        -95.394                  95.394                   -95.394                  95.394                   -850.0000000000001       850.0000000000001
0.07                     -850.0000000000001       850.0000000000001        0                        0                        -10.599                  10.599                   -10.599                  10.599                   -21.199                  21.199                   -21.199                  21.199                   -31.798000000000005      31.798000000000005       -31.798000000000005      31.798000000000005       -42.397                  42.397                   -42.397                  42.397                   -52.997                  52.997                   -52.997                  52.997                   -63.59600000000001       63.59600000000001        -63.59600000000001       63.59600000000001        -74.195                  74.195                   -74.195                  74.195                   -84.79500000000002       84.79500000000002        -84.79500000000002       84.79500000000002        -95.394                  95.394                   -95.394                  95.394                   -850.0000000000001       850.0000000000001
0.08                     -850.0000000000001       850.0000000000001        0                        0                        -10.599                  10.599                   -10.599                  10.599                   -21.199                  21.199                   -21.199                  21.199                   -31.798000000000005      31.798000000000005       -31.798000000000005      31.798000000000005       -42.397                  42.397                   -42.397                  42.397                   -52.997                  52.997                   -52.997                  52.997                   -63.59600000000001       63.59600000000001        -63.59600000000001       63.59600000000001        -74.195                  74.195                   -74.195                  74.195                   -84.79500000000002       84.79500000000002        -84.79500000000002       84.79500000000002        -95.394                  95.394                   -95.394                  95.394                   -850.0000000000001       850.0000000000001
0.09                     -850.0000000000001       850.0000000000001        0                        0                        -10.599                  10.599                   -10.599                  10.599                   -21.199                  21.199                   -21.199                  21.199                   -31.798000000000005      31.798000000000005       -31.798000000000005      31.798000000000005       -42.397                  42.397                   -42.397                  42.397                   -52.997                  52.997                   -52.997                  52.997                   -63.59600000000001       63.59600000000001        -63.59600000000001       63.59600000000001        -74.195                  74.195                   -74.195                  74.195                   -84.79500000000002       84.79500000000002        -84.79500000000002       84.79500000000002        -95.394                  95.394                   -95.394                  95.394                   -850.0000000000001       850.0000000000001
0.1                      -850.0000000000001       850.0000000000001        0                        0                        -10.599                  10.599                   -10.599                  10.599                   -21.199                  21.199                   -21.199                  21.199                   -31.798000000000005      31.798000000000005       -31.798000000000005      31.798000000000005       -42.397                  42.397                   -42.397                  42.397                   -52.997                  52.997                   -52.997                  52.997                   -63.59600000000001       63.59600000000001        -63.59600000000001       63.59600000000001        -74.195                  74.195                   -74.195                  74.195                   -84.79500000000002       84.79500000000002        -84.79500000000002       84.79500000000002        -95.394                  95.394                   -95.394                  95.394                   -850.0000000000001       850.0000000000001
0.11                     -850.0000000000001       850.0000000000001        0                        0                        -10.599                  10.599                   -10.599                  10.599                   -21.199                  21.199                   -21.199                  21.199                   -31.798000000000005      31.798000000000005       -31.798000000000005      31.798000000000005       -42.397                  42.397                   -42.397                  42.397                   -52.997                  52.997                   -52.997                  52.997                   -63.59600000000001       63.59600000000001        -63.59600000000001       63.59600000000001        -74.195                  74.195                   -74.195                  74.195                   -84.79500000000002       84.79500000000002        -84.79500000000002       84.79500000000002        -95.394                  95.394                   -95.394                  95.394                   -850.0000000000001       850.0000000000001
0.12                     -850.0000000000001       850.0000000000001        0                        0                        -10.599                  10.599                   -10.599                  10.599                   -21.199                  21.199                   -21.199                  21.199                   -31.798000000000005      31.798000000000005       -31.798000000000005      31.798000000000005       -42.397                  42.397                   -42.397                  42.397                   -52.997                  52.997                   -52.997                  52.997                   -63.59600000000001       63.59600000000001        -63.59600000000001       63.59600000000001        -74.195                  74.195                   -74.195                  74.195                   -84.79500000000002       84.79500000000002        -84.79500000000002       84.79500000000002        -95.394                  95.394                   -95.394                  95.394                   -850.0000000000001       850.0000000000001
0.13                     -850.0000000000001       850.0000000000001        0                        0                        -10.599                  10.599                   -10.599                  10.599                   -21.199                  21.199                   -21.199                  21.199                   -31.798000000000005      31.798000000000005       -31.798000000000005      31.798000000000005       -42.397                  42.397                   -42.397                  42.397                   -52.997                  52.997                   -52.997                  52.997                   -63.59600000000001       63.59600000000001        -63.59600000000001       63.59600000000001        -74.195                  74.195                   -74.195                  74.195                   -84.79500000000002       84.79500000000002        -84.79500000000002       84.79500000000002        -95.394                  95.394                   -95.394                  95.394                   -850.0000000000001       850.0000000000001
0.14                     -850.0000000000001       850.0000000000001        0                        0                        -10.599                  10.599                   -10.599                  10.599                   -21.199                  21.199                   -21.199                  21.199                   -31.798000000000005      31.798000000000005       -31.798000000000005      31.798000000000005       -42.397                  42.397                   -42.397                  42.397                   -52.997                  52.997                   -52.997                  52.997                   -63.59600000000001       63.59600000000001        -63.59600000000001       63.59600000000001        -74.195                  74.195                   -74.195                  74.195                   -84.79500000000002       84.79500000000002        -84.79500000000002       84.79500000000002        -95.394                  95.394                   -95.394                  95.394                   -850.0000000000001       850.0000000000001
0.15                     -850.0000000000001       850.0000000000001        0                        0                        -10.599                  10.599                   -10.599                  10.599                   -21.199                  21.199                   -21.199                  21.199                   -31.798000000000005      31.798000000000005       -31.798000000000005      31.798000000000005       -42.397                  42.397                   -42.397                  42.397                   -52.997                  52.997                   -52.997                  52.997                   -63.59600000000001       63.59600000000001        -63.59600000000001       63.59600000000001        -74.195                  74.195                   -74.195                  74.195                   -84.79500000000002       84.79500000000002        -84.79500000000002       84.79500000000002        -95.394                  95.394                   -95.394                  95.394                   -850.0000000000001       850.0000000000001
0.16                     -850.0000000000001       850.0000000000001        0                        0                        -10.599                  10.599                   -10.599                  10.599                   -21.199                  21.199                   -21.199                  21.199                   -31.798000000000005      31.798000000000005       -31.798000000000005      31.798000000000005       -42.397                  42.397                   -42.397                  42.397                   -52.997                  52.997                   -52.997                  52.997                   -63.59600000000001       63.59600000000001        -63.59600000000001       63.59600000000001        -74.195                  74.195                   -74.195                  74.195                   -84.79500000000002       84.79500000000002        -84.79500000000002       84.79500000000002        -95.394                  95.394                   -95.394                  95.394                   -850.0000000000001       850.0000000000001
0.17                     -850.0000000000001       850.0000000000001        0                        0                        -10.599                  10.599                   -10.599                  10.599                   -21.199                  21.199                   -21.199                  21.199                   -31.798000000000005      31.798000000000005       -31.798000000000005      31.798000000000005       -42.397                  42.397                   -42.397                  42.397                   -52.997                  52.997                   -52.997                  52.997                   -63.59600000000001       63.59600000000001        -63.59600000000001       63.59600000000001        -74.195                  74.195                   -74.195                  74.195                   -84.79500000000002       84.79500000000002        -84.79500000000002       84.79500000000002        -95.394                  95.394                   -95.394                  95.394                   -850.0000000000001       850.0000000000001
0.18                     -850.0000000000001       850.0000000000001        0                        0                        -10.599                  10.599                   -10.599                  10.599                   -21.199                  21.199                   -21.199                  21.199                   -31.798000000000005      31.798000000000005       -31.798000000000005      31.798000000000005       -42.397                  42.397                   -42.397                  42.397                   -52.997                  52.997                   -52.997                  52.997                   -63.59600000000001       63.59600000000001        -63.59600000000001       63.59600000000001        -74.195                  74.195                   -74.195                  74.195                   -84.79500000000002       84.79500000000002        -84.79500000000002       84.79500000000002        -95.394                  95.394                   -95.394                  95.394                   -850.0000000000001       850.0000000000001
0.19                     -850.0000000000001       850.0000000000001        0                        0                        -10.599                  10.599                   -10.599                  10.599                   -21.199                  21.199                   -21.199                  21.199                   -31.798000000000005      31.798000000000005       -31.798000000000005      31.798000000000005       -42.397                  42.397                   -42.397                  42.397                   -52.997                  52.997                   -52.997                  52.997                   -63.59600000000001       63.59600000000001        -63.59600000000001       63.59600000000001        -74.195                  74.195                   -74.195                  74.195                   -84.79500000000002       84.79500000000002        -84.79500000000002       84.79500000000002        -95.394                  95.394                   -95.394                  95.394                   -850.0000000000001       850.0000000000001
0.2                      -850.0000000000001       850.0000000000001        0                        0                        -10.599                  10.599                   -10.599                  10.599                   -21.199                  21.199                   -21.199                  21.199                   -31.798000000000005      31.798000000000005       -31.798000000000005      31.798000000000005       -42.397                  42.397                   -42.397                  42.397                   -52.997                  52.997                   -52.997                  52.997                   -63.59600000000001       63.59600000000001        -63.59600000000001       63.59600000000001        -74.195                  74.195                   -74.195                  74.195                   -84.79500000000002       84.79500000000002        -84.79500000000002       84.79500000000002        -95.394                  95.394                   -95.394                  95.394                   -850.0000000000001       850.0000000000001
0.21                     -850.0000000000001       850.0000000000001        0                        0                        -10.599                  10.599                   -10.599                  10.599                   -21.199                  21.199                   -21.199                  21.199                   -31.798000000000005      31.798000000000005       -31.798000000000005      31.798000000000005       -42.397                  42.397                   -42.397                  42.397                   -52.997                  52.997                   -52.997                  52.997                   -63.59600000000001       63.59600000000001        -63.59600000000001       63.59600000000001        -74.195                  74.195                   -74.195                  74.195                   -84.79500000000002       84.79500000000002        -84.79500000000002       84.79500000000002        -95.394                  95.394                   -95.394                  95.394                   -850.0000000000001       850.0000000000001
0.22                     -850.0000000000001       850.0000000000001        0                        0                        -10.599                  10.599                   -10.599                  10.599                   -21.199                  21.199                   -21.199                  21.199                   -31.798000000000005      31.798000000000005       -31.798000000000005      31.798000000000005       -42.397                  42.397                   -42.397                  42.397                   -52.997                  52.997                   -52.997                  52.997                   -63.59600000000001       63.59600000000001        -63.59600000000001       63.59600000000001        -74.195                  74.195                   -74.195                  74.195                   -84.79500000000002       84.79500000000002        -84.79500000000002       84.79500000000002        -95.394                  95.394                   -95.394                  95.394                   -850.0000000000001       850.0000000000001
0.23                     -850.0000000000001       850.0000000000001        0                        0                        -10.599                  10.599                   -10.599                  10.599                   -21.199                  21.199                   -21.199                  21.199                   -31.798000000000005      31.798000000000005       -31.798000000000005      31.798000000000005       -42.397                  42.397                   -42.397                  42.397                   -52.997                  52.997                   -52.997                  52.997                   -63.59600000000001       63.59600000000001        -63.59600000000001       63.59600000000001        -74.195                  74.195                   -74.195                  74.195                   -84.79500000000002       84.79500000000002        -84.79500000000002       84.79500000000002        -95.394                  95.394                   -95.394                  95.394                   -850.0000000000001       850.0000000000001
0.24                     -850.0000000000001       850.0000000000001        0                        0                        -10.599                  10.599                   -10.599                  10.599                   -21.199                  21.199                   -21.199                  21.199                   -31.798000000000005      31.798000000000005       -31.798000000000005      31.798000000000005       -42.397                  42.397                   -42.397                  42.397                   -52.997                  52.997                   -52.997                  52.997                   -63.59600000000001       63.59600000000001        -63.59600000000001       63.59600000000001        -74.195                  74.195                   -74.195                  74.195                   -84.79500000000002       84.79500000000002        -84.79500000000002       84.79500000000002        -95.394                  95.394                   -95.394                  95.394                   -850.0000000000001       850.0000000000001
0.25                     -850.0000000000001       850.0000000000001        0                        0                        -10.599                  10.599                   -10.599                  10.599                   -21.199                  21.199                   -21.199                  21.199                   -31.798000000000005      31.798000000000005       -31.798000000000005      31.798000000000005       -42.397                  42.397                   -42.397                  42.397                   -52.997                  52.997                   -52.997                  52.997                   -63.59600000000001       63.59600000000001        -63.59600000000001       63.59600000000001        -74.195                  74.195                   -74.195                  74.195                   -84.79500000000002       84.79500000000002        -84.79500000000002       84.79500000000002        -95.394                  95.394                   -95.394                  95.394                   -850.0000000000001       850.0000000000001